[Molden Format]
made by pyscf v[1.7.5.1]
[Atoms] (AU)
O   1   8    -2.21324723709060     0.56635091953215     0.00000000000000
GHOST-C   2   0    -0.08749431956736    -1.07052984956611     0.00000000000000
GHOST-C   3   0     2.30074155665796     0.50417893003396     0.00000000000000
GHOST-H   4   0    -0.18103576273333    -2.29034806297285     1.66654946925393
GHOST-H   5   0    -0.17990192705859    -2.25595504750577    -1.69054899103590
GHOST-H   6   0     3.97787349220946    -0.70297811833820    -0.03344815240480
GHOST-H   7   0     2.34817368238455     1.75876810413270    -1.64481761882143
GHOST-H   8   0     2.38407847875128     1.71058008795629     1.67921063428851
H   9   1    -2.13368976724641     1.58056693058622     1.53048918828524
[GTO]
1 0
 s    6 1.00
             5484.6717   0.001831099805527
             825.23495   0.013950098518422
             188.04696    0.06844509273075
               52.9645    0.23271427528445
              16.89757    0.47019295006289
             5.7996353    0.35852086192309
 s    3 1.00
             15.539616   -0.11077750382508
             3.5999336   -0.14802630511126
             1.0137618     1.1307670390447
 s    1 1.00
             0.2700058                   1
 p    3 1.00
             15.539616   0.070874299543311
             3.5999336    0.33975279781076
             1.0137618    0.72715859531445
 p    1 1.00
             0.2700058                   1

2 0
 s    6 1.00
             3047.5249  0.0018347001629433
             457.36951    0.01403730124668
             103.94869   0.068842606114048
             29.210155    0.23218442062076
              9.286663    0.46794134155879
              3.163927    0.36231203217765
 s    3 1.00
             7.8682724   -0.11933240861517
             1.8812885   -0.16085421161283
             0.5442493     1.1434564825515
 s    1 1.00
             0.1687144                   1
 p    3 1.00
             7.8682724   0.068999095584993
             1.8812885    0.31642397975315
             0.5442493    0.74430825237435
 p    1 1.00
             0.1687144                   1

3 0
 s    6 1.00
             3047.5249  0.0018347001629433
             457.36951    0.01403730124668
             103.94869   0.068842606114048
             29.210155    0.23218442062076
              9.286663    0.46794134155879
              3.163927    0.36231203217765
 s    3 1.00
             7.8682724   -0.11933240861517
             1.8812885   -0.16085421161283
             0.5442493     1.1434564825515
 s    1 1.00
             0.1687144                   1
 p    3 1.00
             7.8682724   0.068999095584993
             1.8812885    0.31642397975315
             0.5442493    0.74430825237435
 p    1 1.00
             0.1687144                   1

4 0
 s    3 1.00
             18.731137    0.03349459952309
             2.8253937    0.23472694665786
             0.6401217    0.81375731841339
 s    1 1.00
             0.1612778                   1

5 0
 s    3 1.00
             18.731137    0.03349459952309
             2.8253937    0.23472694665786
             0.6401217    0.81375731841339
 s    1 1.00
             0.1612778                   1

6 0
 s    3 1.00
             18.731137    0.03349459952309
             2.8253937    0.23472694665786
             0.6401217    0.81375731841339
 s    1 1.00
             0.1612778                   1

7 0
 s    3 1.00
             18.731137    0.03349459952309
             2.8253937    0.23472694665786
             0.6401217    0.81375731841339
 s    1 1.00
             0.1612778                   1

8 0
 s    3 1.00
             18.731137    0.03349459952309
             2.8253937    0.23472694665786
             0.6401217    0.81375731841339
 s    1 1.00
             0.1612778                   1

9 0
 s    3 1.00
             18.731137    0.03349459952309
             2.8253937    0.23472694665786
             0.6401217    0.81375731841339
 s    1 1.00
             0.1612778                   1

[5d]
[7f]
[9g]

[MO]
 Sym= A
 Ene=    -19.43958571
 Spin= Alpha
 Occup=    2.00000
   1      0.99552926831251
   2     0.027598739277086
   3     -0.01788461406392
   4    0.0014922458583818
   5    -0.000369319614512
   6    0.0017752515326912
   7    -0.0039247861573461
   8    0.0015623372903612
   9    -0.0015379128750753
  10    0.00032434788364169
  11    0.00079748718197539
  12     0.010262174847237
  13    8.6407452858078e-05
  14    -0.00055321308746406
  15    -0.00042947355577899
  16    -0.0024596076187861
  17    0.0020054902974811
  18    0.00011156581141928
  19    -0.00027515977496079
  20    -6.498068036867e-05
  21    -0.00044147999768177
  22    -0.00086475156164624
  23    0.0006375629449997
  24    5.3971002496976e-05
  25    -0.00043222105766335
  26    0.0010891750387323
  27    -6.7843308194067e-05
  28    0.00011501532609946
  29    -0.00061136613625948
  30    0.00082429232980649
  31    0.00010404177947651
  32    -0.00092143330490258
  33    -5.4254356902435e-05
  34    0.00026402990454203
  35    -0.00017196690670553
  36    0.00051129722094309
  37    -0.00029418884671541
  38    0.00047696031995929
  39      0.00263793406321
 Sym= A
 Ene=    -1.164667884
 Spin= Alpha
 Occup=    2.00000
   1     -0.21448297968597
   2      0.46968701098812
   3      0.51695871736339
   4      0.07805854565287
   5     0.014102608964427
   6     0.079200319206906
   7     0.056304960436129
   8    -0.0053991161088543
   9     0.033962378620017
  10    -0.0084407434629925
  11     0.053043382670769
  12    -0.050752368759343
  13     -0.10043976954854
  14     0.082035468355164
  15    0.00046167857342667
  16      0.01077452382991
  17    -0.0044630044683356
  18    -0.00090197334482352
  19    0.0020146560639775
  20    -0.0084200068566216
  21    -0.016646851897442
  22     0.022386435595987
  23    -0.0044032574068284
  24    -0.0017242323517472
  25    0.0099267280592188
  26    -0.001801525686203
  27    4.7608249655057e-05
  28    -0.014885688824379
  29    -0.0098664017609762
  30    -0.012951538708726
  31    -0.0072257189951711
  32      0.01606933225778
  33     0.016061575441085
  34    -0.0066629550506092
  35    -0.00089038489055845
  36    -0.0085548994139437
  37    -0.00061031704638368
  38      0.14286436905915
  39    -0.0064927874505243
 Sym= A
 Ene=   -0.6082237868
 Spin= Alpha
 Occup=    2.00000
   1     0.028836054756595
   2    -0.066352188897788
   3     -0.12784618845016
   4     -0.10551830941876
   5      0.31748557637931
   6      0.39068076666994
   7    -0.031364174077684
   8      0.14661442565878
   9      0.21580487696619
  10     0.013802651015435
  11    -0.099992601984835
  12    -0.071504898602998
  13      0.16589368349582
  14     -0.12701023944088
  15    0.0022026636920102
  16     0.057857913348962
  17    -0.037776514600381
  18     0.025248263920899
  19    -1.5156084899238e-05
  20    -7.3793491262236e-05
  21    -0.010637769016563
  22    -0.0086093665373318
  23    0.00014251731278895
  24    -0.0094699566607101
  25    -0.013000031394925
  26    0.0079340234060343
  27    -0.027978666531242
  28    -0.0014600927308261
  29    -0.011093012934903
  30     0.043092255158771
  31     0.084054289277244
  32    -0.011527331110595
  33    -0.0091963050291764
  34    0.0068205261442058
  35    -0.0088856889580311
  36    0.0026409582801692
  37     0.025018070965076
  38      0.29782519290273
  39      0.16726989715547
 Sym= A
 Ene=   -0.5200023785
 Spin= Alpha
 Occup=    2.00000
   1     0.066540805255891
   2     -0.15413426922774
   3     -0.26752534145086
   4      0.42567788060419
   5     -0.17634361322674
   6      0.30615569319034
   7      0.28768314306775
   8     -0.11824986213457
   9      0.21737136471366
  10    -0.017682385292942
  11      0.11921017451436
  12     0.096375496074511
  13     -0.19745189931481
  14      0.15830558547427
  15    0.0022410700300554
  16    -0.020971765437942
  17     0.078346369267468
  18     0.085201331711284
  19    0.0036412366174234
  20    -0.0099322356276813
  21    -0.088758769776924
  22     0.033882557095609
  23    0.0077826483376443
  24    -0.0072016643691081
  25     0.050393098161638
  26     0.028160978854703
  27    -0.052065285910969
  28    -0.038703470376684
  29     -0.10355190586731
  30     0.019037850929617
  31     0.061556075013154
  32     0.028321561219413
  33     0.044901459578302
  34    -0.010245342213565
  35    -0.045025903279851
  36    -0.011160081504443
  37     0.021922066806184
  38     0.058633267237519
  39     0.037233425246745
 Sym= A
 Ene=   -0.4845565672
 Spin= Alpha
 Occup=    2.00000
   1    0.0095430613894732
   2    -0.024593478719564
   3    -0.0034387555948508
   4      0.37176626339045
   5      0.44693653147339
   6      -0.2793075675941
   7      0.29076754157553
   8      0.33023836145325
   9     -0.21645420576218
  10    -0.00082229786967669
  11    0.0032317350774643
  12    0.0018569801855951
  13    0.0067630747989253
  14     0.017440447846884
  15    -0.0051968249416296
  16     0.067321259278987
  17    0.0069248785422434
  18    -0.034203422743072
  19    0.0055565336858637
  20    -0.033525108698498
  21     -0.14490010407469
  22     0.049770790245689
  23     0.016356296854377
  24    0.0033554444102381
  25    -0.005562033402114
  26     0.082133348879009
  27     0.032894934799531
  28     0.046570187365594
  29     0.090311095557738
  30    0.00078222845946621
  31    -0.0062968622430256
  32     0.022619358480663
  33     0.099055918953908
  34     -0.01039129735123
  35     0.025051567759914
  36    -0.011994012994569
  37    -0.014323204819895
  38     0.012664473405151
  39    0.0076130962030919
 Sym= A
 Ene=  -0.05563962157
 Spin= Alpha
 Occup=    0.00000
   1     0.063617978373267
   2    -0.083830015421067
   3     -0.85991583979657
   4     0.031713388838211
   5      -0.2157333863021
   6     -0.28736917063237
   7     -0.10577696183181
   8     -0.28591952778535
   9     -0.39827232939388
  10     0.027243818997995
  11        0.100091300034
  12     -0.66315492119399
  13    0.0077538102710099
  14    -0.0066440261576651
  15    -0.0090169450672793
  16     -0.10979875634278
  17      0.40786667072277
  18     -0.10018407488488
  19     0.034255127804886
  20      0.16463141753351
  21     -0.91763548438393
  22    -0.0051834259002404
  23    0.0076784569475454
  24    -0.0056277547039576
  25     -0.16155567428141
  26     -0.33963019382929
  27     -0.11001114539878
  28    -0.0057881559728668
  29       0.4985043760782
  30    0.0026542645452357
  31      0.19579575873976
  32    -0.0062657147520423
  33      0.37274078384969
  34    -0.0059333627898096
  35      0.32414117012691
  36    -0.0057785827483617
  37      0.43135774351216
  38      0.19213190251325
  39       1.2748248127158
 Sym= A
 Ene=    0.7202605703
 Spin= Alpha
 Occup=    0.00000
   1    0.0019088306465963
   2     0.064078290327147
   3     0.096283637713258
   4     -0.19436156211611
   5     -0.30807979118936
   6     -0.58747423392874
   7      0.36585761605722
   8    -0.020282659158725
   9      0.14855404266826
  10    -0.019114357678164
  11     0.043032113037669
  12      0.34294657831236
  13    -0.0039080881021878
  14    -0.0003343140491537
  15    -0.0037563168079704
  16      0.35821144112136
  17     -0.29730357556195
  18      0.32875534225252
  19    -0.028769393731834
  20     0.048723369612012
  21      0.53220416539717
  22    0.00076082134186219
  23     0.012180995734423
  24     0.019631853532061
  25      0.40217500702736
  26      0.20494972744539
  27      0.26638650993488
  28       0.0190868146959
  29      -0.5817717496797
  30     0.013611341882681
  31      0.10068053208438
  32     0.024297206980428
  33      -0.5507382244266
  34     0.062390755203659
  35    -0.0058962027081508
  36     0.069949808227437
  37     -0.67513286399766
  38      0.84682731034703
  39     -0.38873622780787
 Sym= A
 Ene=    0.8110928769
 Spin= Alpha
 Occup=    0.00000
   1    0.0016601063821029
   2    -0.0072450991370622
   3     0.026617699011156
   4    -0.077498932127781
   5      0.13849097676251
   6     -0.13756947124752
   7      0.12747075886902
   8     -0.17218793386599
   9      0.14081294383757
  10    -0.016453125909755
  11    -0.087859868322791
  12      0.22367126548483
  13     0.062807341968449
  14    -0.056168658274162
  15    -0.058269438102089
  16     -0.27969800641435
  17     -0.14083474960464
  18     -0.66712541638646
  19    -0.003805791321822
  20     0.010666763850911
  21     0.056907983251062
  22    -0.0085957500461031
  23    -0.0070733473212313
  24    -0.073215951026069
  25    -0.076854961902215
  26     -0.30109611852237
  27      -1.2025213934127
  28     0.012327642420594
  29      0.63066841662586
  30     0.031479818912497
  31      -1.1954996974587
  32    -0.011318073645936
  33     -0.15081995915315
  34     0.071783610348373
  35      -1.2104756812989
  36    -0.030255365684394
  37       1.6067164437054
  38      0.40760804469306
  39     -0.44054987356226
 Sym= A
 Ene=      0.93265841
 Spin= Alpha
 Occup=    0.00000
   1    -0.036486364651205
   2      0.44711051900132
   3      -0.1719183325387
   4    -0.026959558378786
   5     -0.74307119003986
   6      0.32490391135292
   7     0.063866400460748
   8      0.74377487051418
   9      -0.3133546418504
  10     0.028948730456423
  11      0.22235720306812
  12     -0.26311723556271
  13     -0.24464839100107
  14      0.16181191411489
  15    -0.024435220088798
  16      0.52996846772174
  17     -0.28754050945979
  18      -0.2104962360204
  19      0.01723791906151
  20    -0.062502096174648
  21     -0.27490447172948
  22     0.032901555914096
  23    -0.0039732251597461
  24     -0.03909766094741
  25     0.008080888030716
  26     0.043343840350248
  27     -0.18409230451615
  28    -0.033986571197635
  29       0.4843052885537
  30    -0.056708451310211
  31     -0.11254634550092
  32    -0.0078252559702059
  33     -0.08584207267652
  34    -0.027529918853066
  35    -0.082013138694782
  36    -0.068431799778513
  37      0.47927488323471
  38    -0.012736790351238
  39     0.044897611872567
 Sym= A
 Ene=    0.9897462448
 Spin= Alpha
 Occup=    0.00000
   1    -0.055490413735226
   2      0.48724059556789
   3     -0.14550850441363
   4       0.3869601748488
   5      0.10917492963545
   6     -0.52348851189712
   7     -0.41015801852916
   8     0.023478490639601
   9      0.86183258038972
  10    0.0071861628413404
  11      0.24491280192207
  12    -0.027900222933548
  13     -0.20286452707806
  14      0.14805247117013
  15    -0.022091836296265
  16      0.49991155993124
  17     -0.24402768397821
  18    -0.029832391405001
  19     0.001995984193949
  20    -0.053159158124721
  21     -0.10933904862559
  22     0.022705192849224
  23    -0.010379965463862
  24    0.0014011325829962
  25      0.10647210818424
  26    -0.035264105741465
  27     -0.30934169719446
  28    -0.063208692115973
  29    -0.092073798303326
  30     0.031591010091809
  31    -0.0093040585673966
  32    -0.044624110758891
  33     -0.25137706133271
  34    -0.030884073969462
  35    -0.069917750215666
  36     0.034131717226911
  37      0.36444951093438
  38      -0.6424126927094
  39      0.33185594839976
 Sym= A
 Ene=     1.017590592
 Spin= Alpha
 Occup=    0.00000
   1    -0.049969401055846
   2      0.72222833796458
   3     -0.71572910057419
   4     -0.17272318548913
   5      0.31776237162157
   6    0.0063864164605193
   7      0.24166452409856
   8      -0.7275923721527
   9     -0.20841629446051
  10     0.028059475004892
  11     -0.22746066311242
  12     -0.50862448189607
  13    0.0036102852822795
  14    0.0095355888896648
  15     0.021442732133022
  16      0.31016975722352
  17      0.29514632273146
  18     0.059343045827868
  19      0.04726265335907
  20     -0.27682147749958
  21     -0.85792129002707
  22    -0.031560978628677
  23    -0.040622675804894
  24     0.017636529550958
  25     -0.10855813062317
  26     -0.27243889158129
  27      0.28110329672807
  28    -0.072490668360278
  29      0.35002051438169
  30    -0.079221536811199
  31      0.51562547544263
  32     -0.15370867348843
  33      0.31701495755196
  34     -0.16805114673045
  35       1.0208648640756
  36     -0.14459300111791
  37      0.39359354510309
  38       0.4445121522802
  39    -0.059083951571485
 Sym= A
 Ene=     1.038863059
 Spin= Alpha
 Occup=    0.00000
   1    -0.036004819537847
   2      0.24907330771265
   3     -0.26930313601515
   4     -0.74666080504629
   5    -0.060338539245051
   6     -0.19633086030943
   7      0.84065441433844
   8      0.32781028340384
   9      0.50854518093179
  10    -0.0053702957421096
  11      -0.1219803621494
  12     -0.13027806581847
  13      0.14762138539889
  14     -0.09147310394127
  15     0.032455318437635
  16     -0.43729044651441
  17      0.11009093539438
  18     0.012659502226594
  19    0.0062156013281385
  20      0.11117693479812
  21     0.057411063968656
  22     -0.06098793330058
  23     0.012995855052278
  24    -0.015585968289382
  25    -0.050811424448965
  26      0.23412518463682
  27     -0.26320463720323
  28     0.055853256336268
  29    -0.042123257413114
  30     0.035131552718854
  31      0.24194939741524
  32       0.0492447290944
  33      0.40931044123628
  34     -0.01796995803177
  35     -0.52413674034591
  36    -0.015345291951676
  37    -0.0074037868179625
  38     -0.63272664850868
  39      0.23616534947256
 Sym= A
 Ene=     1.237342928
 Spin= Alpha
 Occup=    0.00000
   1    -0.005740904817058
   2       0.1723857217487
   3     -0.30098019702556
   4     0.089628313191818
   5     0.033334818317685
   6    0.0013425774945439
   7    -0.044074483923506
   8     0.016859408098634
   9    -0.039365197479489
  10     0.046828282598358
  11     -0.44900817522212
  12     -0.34239650436288
  13     0.072699561690033
  14      0.28015971111202
  15     0.060433739558219
  16     -0.11290409248203
  17     0.048516556686869
  18     0.051151641120758
  19    -0.030744359654515
  20      0.33918953488001
  21      0.33056637382585
  22       0.1184232066022
  23     0.051092992727577
  24    -0.046098403444213
  25    -0.010815541796474
  26     0.013627481484414
  27     -0.16697341911892
  28     -0.31688521056398
  29      0.74861774790477
  30     -0.42197923631194
  31       1.0251934074475
  32      0.30002006517744
  33     -0.62064236619074
  34      0.20208249720663
  35     -0.62917556814458
  36      0.15429271843968
  37     -0.15260388209199
  38     0.064751738516455
  39    -0.024473098545889
 Sym= A
 Ene=     1.317906779
 Spin= Alpha
 Occup=    0.00000
   1    0.0081568235352205
   2     -0.18161650603953
   3      0.47350436965087
   4      0.17627643177076
   5     -0.12315169244041
   6     -0.18319607480498
   7     -0.24998961138731
   8      0.15719877279422
   9      0.41082726841207
  10     0.028618494829069
  11    -0.00012758905499102
  12     -0.57557740386044
  13     -0.14567121688453
  14     0.010401551427967
  15      0.25080781748226
  16    -0.071722569149514
  17     -0.30647194858749
  18      -0.4142857408261
  19      0.01044684480199
  20     -0.15622829922487
  21    -0.050012745190595
  22     -0.12581814082177
  23       0.2893369743235
  24    -0.025288957006969
  25       -1.088617556875
  26      0.19821710495297
  27     -0.01945011042932
  28      0.27913160850753
  29     -0.24414588480152
  30     -0.29522811169261
  31      0.30412991248341
  32     -0.23001029961571
  33       1.6879374447449
  34      0.14132177151066
  35     -0.58054675029309
  36     0.086476490688448
  37    -0.097676886326096
  38      0.16438166670991
  39     -0.53056584979086
 Sym= A
 Ene=     1.456029809
 Spin= Alpha
 Occup=    0.00000
   1     -0.01855713700148
   2      0.24009235956324
   3     -0.25772117801304
   4    -0.037514537666095
   5      0.10939878707269
   6     0.088993497554083
   7     0.052065909334833
   8     -0.25544024582875
   9     -0.30655629759201
  10    0.0094091879197473
  11    -0.026999760680227
  12      -0.3301940440985
  13     -0.16259101974238
  14    -0.081017134035155
  15     -0.38526392800553
  16      0.26535063897102
  17       0.2694221872286
  18      0.39447358198011
  19    -0.0019699161718057
  20      0.11827099517767
  21     -0.23345010505756
  22     0.025546478306217
  23      0.34541473680718
  24      -0.1443938313547
  25     -0.26054009957753
  26     -0.32452495661628
  27      0.52589954707891
  28     -0.24613747125823
  29      0.42956987831496
  30      0.47713180410184
  31     -0.32648287315687
  32     -0.11574717257925
  33       0.4766307239475
  34      0.58153151174947
  35     -0.18145813624708
  36     0.065937557766355
  37     -0.53590611590768
  38     0.016452137300987
  39       0.2209921940586
 Sym= A
 Ene=     1.500005287
 Spin= Alpha
 Occup=    0.00000
   1    -0.0095455981751521
   2      0.15508909869311
   3     -0.18980068703027
   4    -0.023196325375842
   5    0.0095620502891416
   6     0.013449989077262
   7    0.0016927711180894
   8     -0.10811344294084
   9     0.044122784606299
  10    0.0092505035648256
  11     -0.16258677160775
  12     -0.18105079528824
  13     -0.18014284028377
  14     -0.19860708108383
  15    -0.086875381881978
  16     0.085703939822131
  17      0.11076330545606
  18     -0.10772092801122
  19    0.0021512747231857
  20     0.080562892304417
  21     -0.26446481928964
  22      0.22226169733636
  23      0.11247655635154
  24      0.40303119233094
  25     -0.72353860894729
  26     -0.36300845520547
  27     -0.63238479030275
  28     0.088212378539854
  29      0.27987569158778
  30     0.093015623979925
  31     -0.48078790260288
  32      0.27420046005946
  33      0.05174695290364
  34     -0.34734948800997
  35       0.4934683359748
  36      0.74044641693588
  37     -0.42980235065173
  38     0.008321824986939
  39     0.052680630147487
 Sym= A
 Ene=     1.542672975
 Spin= Alpha
 Occup=    0.00000
   1     0.014931628909399
   2     -0.21503912337725
   3      0.15049505595359
   4    -0.060773692644935
   5    -0.030665221625253
   6     -0.03219121080772
   7      0.08134896982446
   8      0.24196215648465
   9     0.092096569643539
  10    -0.0069284589600067
  11     0.092178451483723
  12      0.21030642820841
  13      0.17286064438183
  14      0.31042797597646
  15     -0.19782561368645
  16     -0.13694415209893
  17      0.22877459471151
  18     0.034665263110191
  19    -0.005213419290288
  20    -0.010929973292723
  21      0.25315395345769
  22     -0.34359604686662
  23      0.11812727433368
  24      0.21432377941712
  25        1.237211808765
  26     0.029153450832299
  27     -0.41084271290559
  28     -0.23563880926994
  29      0.77514162866146
  30    0.0052313632539571
  31    -0.068287839778341
  32     -0.63375328858448
  33     0.033975341545005
  34       -0.294921672707
  35    -0.053622314815895
  36      0.29661489238689
  37     -0.49497038874257
  38    -0.061685403757064
  39    -0.059176288369668
 Sym= A
 Ene=     1.638372236
 Spin= Alpha
 Occup=    0.00000
   1    -0.017033738482431
   2      0.35249755969426
   3     -0.66706353412256
   4     -0.10501854913057
   5      0.22801877990028
   6      0.29140062825961
   7       0.1693459881167
   8     -0.57863945814035
   9     -0.57730718898956
  10     -0.01411038511263
  11      0.23351400970436
  12    -0.089338128543435
  13    -0.062680129685852
  14     -0.04226677238507
  15       0.3047544677178
  16      0.65558778681814
  17      0.82085003353638
  18     -0.11807132406168
  19    -0.004634467937631
  20      0.17781042447583
  21     -0.33483762201861
  22     0.034303250016413
  23      0.19254585533648
  24    -0.055395129519275
  25       1.0606761221576
  26     -0.44013613124419
  27     -0.20726528937386
  28      0.51055314212461
  29      -0.3119120861795
  30    -0.0089989826039077
  31      0.51565863603847
  32     -0.33813071002908
  33     -0.57650951190172
  34      0.23405338861092
  35     -0.43528938741051
  36      0.34550764983727
  37    -0.028626295730994
  38    -0.048282710013795
  39      0.94457672162137
 Sym= A
 Ene=     1.813803069
 Spin= Alpha
 Occup=    0.00000
   1    -0.0071593871926373
   2       0.2411478475096
   3     -0.31651161597718
   4      0.20891579604399
   5    -0.0044542391629352
   6    -0.079149364388143
   7     -0.61939734910774
   8       -0.224004023828
   9      0.15048827205159
  10      0.04747266341819
  11      0.34092402011219
  12     -0.72925083056216
  13     0.064664816108029
  14      0.10675658424178
  15    -0.088714271474875
  16        0.550407627737
  17       1.3263394676483
  18     -0.26702524814566
  19    -0.0047208153442198
  20    -0.035584355704975
  21     -0.24008784423715
  22     0.053511178284837
  23     0.022720597936286
  24    -0.030373974953088
  25      0.12991093274966
  26       1.0342814345037
  27      0.12400817265457
  28      0.53810125644156
  29      0.95295642374057
  30      0.40843414977803
  31      0.51109930553547
  32       0.3707259248973
  33      0.23869227225301
  34     -0.25774953265581
  35     -0.40327088506476
  36     -0.24960940814528
  37     -0.41906235101089
  38      0.24800282764406
  39     -0.33574476985301
 Sym= A
 Ene=     1.938241066
 Spin= Alpha
 Occup=    0.00000
   1     0.034713254613802
   2     -0.70553163991649
   3      0.85854540666697
   4     -0.10437646095787
   5     -0.10619980781381
   6     -0.19932962190696
   7      -0.1385530002586
   8      0.21694059480465
   9      0.52940229064812
  10    -0.014002157774078
  11     -0.75063173404331
  12      0.85103501621664
  13     -0.24570180384331
  14     -0.25363523515404
  15     0.047637872873485
  16      0.55639775000816
  17       1.1074947686326
  18    -0.032489889106892
  19    -0.019697192553425
  20     -0.72540873817989
  21      0.69493499284056
  22      0.42358383220228
  23      0.15707375655068
  24    -0.050565978537601
  25      0.49114984858208
  26     -0.36685507100621
  27    -0.051736997101481
  28    -0.077060674415865
  29      0.28736419417545
  30      0.05876583218794
  31      0.25204773015138
  32     -0.31628986043654
  33     -0.72437811326391
  34    -0.055946025684863
  35     -0.24274172309002
  36     -0.15423644386655
  37     0.099281788632342
  38     -0.13596336986398
  39      -0.7286965981198
 Sym= A
 Ene=     2.508884746
 Spin= Alpha
 Occup=    0.00000
   1    -0.019954097460395
   2      0.11873396765345
   3      0.01428503914572
   4     0.080381917930613
   5     0.090773772371104
   6     0.087257709350547
   7      0.18018907673006
   8     -0.54479720765894
   9      -0.1464529858601
  10    -0.045547420932286
  11     -0.22051803696763
  12      0.64224797858707
  13      0.19737518843317
  14     -0.36582731616295
  15     -0.27060764394277
  16      0.69694501921682
  17     -0.31508544375111
  18     -0.16659081388475
  19     -0.05514154256357
  20     -0.09405453747323
  21      0.54067368051542
  22      0.19974571079907
  23      0.42662129707806
  24    -0.014618543322482
  25    -0.023109605401018
  26      0.69113922592889
  27      0.21286254590661
  28    -0.092867376483645
  29     -0.19012324957024
  30     -0.64813275751194
  31     -0.16334416789629
  32    -0.0026787034610025
  33     0.041596265480214
  34     -0.48251578805729
  35     -0.25854383282384
  36      -0.4713411586357
  37     -0.52495973955021
  38     -0.11153732870866
  39       0.5723805845134
 Sym= A
 Ene=     2.531905073
 Spin= Alpha
 Occup=    0.00000
   1    -0.0080038940638768
   2       0.1044004241106
   3    -0.072708513395732
   4      0.11397944435553
   5    -0.015254079318524
   6       0.1462040602385
   7    -0.025689185241992
   8     -0.24006184043492
   9      -0.7444138738072
  10     0.010395048609424
  11    -0.026523788631615
  12     -0.13239261513595
  13      0.10183395208413
  14      -0.1205786169774
  15      0.44662389697864
  16      0.13590407956358
  17     -0.12490065373121
  18       1.2493038521827
  19    -0.019274710341065
  20     -0.15692289183672
  21      0.46287308151583
  22    -0.065129584295948
  23      0.19878393125185
  24     -0.18168155322669
  25     -0.12872696705935
  26      0.23014761279899
  27      -1.0376536577206
  28     -0.73192241765467
  29     -0.26367855208212
  30      0.70427365226532
  31      0.19213678719118
  32      0.10175311143856
  33     0.064690759971146
  34      -0.5654016409746
  35     -0.49295051565063
  36      0.15308030043954
  37       0.2148386178998
  38      0.28192482911587
  39     0.078999983329966
 Sym= A
 Ene=     2.990559837
 Spin= Alpha
 Occup=    0.00000
   1     -0.05078590326568
   2     0.058914085229159
   3      0.13770380627604
   4      0.30385049873216
   5     -0.29394659308172
   6    -0.029810401173597
   7      0.23526125936813
   8     0.037182686426421
   9      0.22511680905141
  10     0.075796239112162
  11     -0.54435238583116
  12      0.11642455513502
  13        0.886205724327
  14     -0.29021833360462
  15      0.11109550832139
  16     -0.64503714025067
  17      0.02985143194287
  18     -0.32685011257482
  19     0.016368408348525
  20    -0.011893547349243
  21     0.064210987581208
  22      0.17327275189392
  23     -0.15260209397438
  24      0.22854493445498
  25     -0.14373377749737
  26     -0.12752866345656
  27     -0.11231638996299
  28      0.20558522304441
  29     0.007657819453212
  30      0.28161119875102
  31     -0.40227168227385
  32      -0.3252478033432
  33      0.33871580549173
  34      0.37132897948312
  35      -0.2170002570273
  36     0.051803230025751
  37      0.10194124612615
  38     -0.20074332381505
  39    -0.077360453668267
 Sym= A
 Ene=     3.120802364
 Spin= Alpha
 Occup=    0.00000
   1    0.0063279506252945
   2     0.090217399528104
   3     -0.20913992360887
   4    -0.041769778629275
   5     0.057116669628518
   6     0.014083115870968