[Molden Format]
made by pyscf v[1.7.5.1]
[Atoms] (AU)
O   1   8    -2.21324723709060     0.56635091953215     0.00000000000000
GHOST-C   2   0    -0.08749431956736    -1.07052984956611     0.00000000000000
GHOST-C   3   0     2.30074155665796     0.50417893003396     0.00000000000000
GHOST-H   4   0    -0.18103576273333    -2.29034806297285     1.66654946925393
GHOST-H   5   0    -0.17990192705859    -2.25595504750577    -1.69054899103590
GHOST-H   6   0     3.97787349220946    -0.70297811833820    -0.03344815240480
GHOST-H   7   0     2.34817368238455     1.75876810413270    -1.64481761882143
GHOST-H   8   0     2.38407847875128     1.71058008795629     1.67921063428851
H   9   1    -2.13368976724641     1.58056693058622     1.53048918828524
[GTO]
1 0
 s    6 1.00
             5484.6717   0.001831099805527
             825.23495   0.013950098518422
             188.04696    0.06844509273075
               52.9645    0.23271427528445
              16.89757    0.47019295006289
             5.7996353    0.35852086192309
 s    3 1.00
             15.539616   -0.11077750382508
             3.5999336   -0.14802630511126
             1.0137618     1.1307670390447
 s    1 1.00
             0.2700058                   1
 p    3 1.00
             15.539616   0.070874299543311
             3.5999336    0.33975279781076
             1.0137618    0.72715859531445
 p    1 1.00
             0.2700058                   1

2 0
 s    6 1.00
             3047.5249  0.0018347001629433
             457.36951    0.01403730124668
             103.94869   0.068842606114048
             29.210155    0.23218442062076
              9.286663    0.46794134155879
              3.163927    0.36231203217765
 s    3 1.00
             7.8682724   -0.11933240861517
             1.8812885   -0.16085421161283
             0.5442493     1.1434564825515
 s    1 1.00
             0.1687144                   1
 p    3 1.00
             7.8682724   0.068999095584993
             1.8812885    0.31642397975315
             0.5442493    0.74430825237435
 p    1 1.00
             0.1687144                   1

3 0
 s    6 1.00
             3047.5249  0.0018347001629433
             457.36951    0.01403730124668
             103.94869   0.068842606114048
             29.210155    0.23218442062076
              9.286663    0.46794134155879
              3.163927    0.36231203217765
 s    3 1.00
             7.8682724   -0.11933240861517
             1.8812885   -0.16085421161283
             0.5442493     1.1434564825515
 s    1 1.00
             0.1687144                   1
 p    3 1.00
             7.8682724   0.068999095584993
             1.8812885    0.31642397975315
             0.5442493    0.74430825237435
 p    1 1.00
             0.1687144                   1

4 0
 s    3 1.00
             18.731137    0.03349459952309
             2.8253937    0.23472694665786
             0.6401217    0.81375731841339
 s    1 1.00
             0.1612778                   1

5 0
 s    3 1.00
             18.731137    0.03349459952309
             2.8253937    0.23472694665786
             0.6401217    0.81375731841339
 s    1 1.00
             0.1612778                   1

6 0
 s    3 1.00
             18.731137    0.03349459952309
             2.8253937    0.23472694665786
             0.6401217    0.81375731841339
 s    1 1.00
             0.1612778                   1

7 0
 s    3 1.00
             18.731137    0.03349459952309
             2.8253937    0.23472694665786
             0.6401217    0.81375731841339
 s    1 1.00
             0.1612778                   1

8 0
 s    3 1.00
             18.731137    0.03349459952309
             2.8253937    0.23472694665786
             0.6401217    0.81375731841339
 s    1 1.00
             0.1612778                   1

9 0
 s    3 1.00
             18.731137    0.03349459952309
             2.8253937    0.23472694665786
             0.6401217    0.81375731841339
 s    1 1.00
             0.1612778                   1

[5d]
[7f]
[9g]

[MO]
 Sym= A
 Ene=    -19.15240535
 Spin= Alpha
 Occup=    2.00000
   1      0.99498837104111
   2     0.029604627119673
   3    -0.017369402045625
   4    0.0025684558929142
   5    -0.00096059221401509
   6    0.0014481997279629
   7    -0.0042747880329342
   8    0.0019794406227572
   9    -0.0017888470979108
  10    -8.7594432195903e-05
  11    -0.0010894868665537
  12    0.0089244007598987
  13    -0.00044390614570722
  14    0.00031115115873906
  15    7.1095735205487e-05
  16    -0.0028581618799854
  17    0.0025278750231281
  18    0.00026035560914894
  19    -2.7641967903033e-05
  20    -0.00048398844850228
  21    -0.00058853493181736
  22    0.00042959711551734
  23    -2.3023288194129e-05
  24    3.0349457711621e-06
  25    -7.8567786467301e-06
  26    0.00068060214406831
  27    -3.5053536575636e-05
  28    -0.00058056408222258
  29    -0.00072285354014885
  30    -0.000484534991826
  31    -0.00062058995961428
  32    -3.3161409897759e-05
  33    0.00085070965560225
  34    -8.5132935787122e-05
  35    -0.00034307647703457
  36    4.6430344601894e-05
  37    -0.00071017095579909
  38    0.00050911354893544
  39    0.0022906640736642
 Sym= A
 Ene=    -1.114882026
 Spin= Alpha
 Occup=    2.00000
   1     -0.21445174229995
   2       0.4629380300515
   3      0.55501573647507
   4      0.19671015427636
   5    -0.094186237004563
   6     0.082243700189846
   7      0.13243928717727
   8    -0.068434275293719
   9     0.047559396271267
  10    0.0049132153262077
  11     0.063988143666488
  12     -0.07618248331222
  13    -0.032407952550583
  14     0.025360452205197
  15    -9.6024070694287e-05
  16     0.044846578289599
  17     -0.02408297516512
  18    0.0063246718191892
  19    0.00077837270730924
  20     0.007968894379571
  21     -0.01577644531303
  22    -0.0020622017395501
  23    0.00050171599419137
  24    -7.3346733283465e-05
  25    0.0077518458953738
  26    -0.0030698014473319
  27    -0.0022252328770083
  28    0.0009831676198674
  29    0.0045496382261085
  30    0.0016550358023069
  31     0.012321837101665
  32    0.00052929050091579
  33    -0.0086421102164338
  34    0.0012758600960705
  35    0.0060975061101716
  36    0.00070668076266449
  37     0.011068420571669
  38      0.10350796661838
  39     -0.01034233107116
 Sym= A
 Ene=   -0.5650486693
 Spin= Alpha
 Occup=    2.00000
   1    -0.011687883815416
   2      0.02798928177545
   3    -0.081921252793514
   4     -0.27002064648377
   5      0.40938370408207
   6      0.28670945771777
   7     -0.17697167403772
   8      0.23166503921227
   9      0.13651034865487
  10    -0.006179836496223
  11    -0.075167950408173
  12    -0.010879860568883
  13     0.040566373217457
  14    -0.030296997189294
  15    0.0015295173783324
  16    -0.015596069593788
  17     0.011276172263032
  18     0.010640864553456
  19    -0.00057368806092847
  20    -0.0058082139591904
  21     0.010842793282174
  22    0.0015803690713627
  23    -0.00067815893702812
  24    -4.9908250244825e-05
  25    -0.0099281111376614
  26    0.0030612016666366
  27    -0.0034062441611708
  28    -2.5937189564098e-05
  29    -0.0054608499990678
  30    0.0025388506982597
  31    -8.3193715764185e-05
  32    0.00013767090963334
  33    0.0065066642285722
  34    -0.0010095762371562
  35    -0.0081590644041848
  36    -0.0012388213428019
  37    -0.00079334352507923
  38      0.29639692402896
  39      0.12875414115719
 Sym= A
 Ene=   -0.3596212692
 Spin= Alpha
 Occup=    2.00000
   1     0.084553023750752
   2     -0.19773854433291
   3     -0.23484988547777
   4      0.42531526870862
   5     -0.05362465538101
   6      0.38436951641705
   7      0.32792027454409
   8    -0.065915106959101
   9      0.26125921453937
  10    0.0033269833679887
  11     0.039184036986869
  12       0.0146936172859
  13    -0.020428375015198
  14     0.015528246583417
  15    -0.0013265131247994
  16     0.063356986305696
  17     0.027014641031563
  18     0.097668511829244
  19    0.00079275910631893
  20    0.0075827468929323
  21    -0.055084943764043
  22    0.00093909065246301
  23    0.00044039367807327
  24    0.00090008141352776
  25     0.013291275988095
  26      0.01450949790125
  27    -0.036208043596055
  28    -0.0052528259196981
  29    -0.016042669856848
  30    0.0081777361250253
  31     0.045820864829631
  32    0.0016575051771575
  33    0.0043370774956107
  34    0.0011168121225859
  35    -0.017368271282556
  36    0.00098537210428184
  37     0.039799259582675
  38       0.1039195832163
  39     0.054502871404024
 Sym= A
 Ene=   -0.3177132013
 Spin= Alpha
 Occup=    2.00000
   1    -0.00064036950530901
   2    -0.00074759962000216
   3     0.017164509430128
   4      0.33912200599195
   5      0.44348577060275
   6     -0.31326098909356
   7      0.25583007919285
   8      0.32530241048248
   9     -0.23227630991241
  10    -5.5145850867198e-05
  11    -0.00077230291993847
  12     0.004346769276807
  13    0.00065454387906642
  14    0.0031193700572121
  15    -0.00082239866735075
  16     0.062144648097228
  17     0.031818172829284
  18    -0.047782543469091
  19    -0.00011397157598308
  20    -0.0018713061160519
  21    -0.042203982943788
  22    0.0053060413066672
  23    -0.0014204605698648
  24    -0.0011621637556055
  25     -0.03003822394634
  26     0.037332695938791
  27     0.022084375588133
  28    0.0078925075530764
  29    -0.0045717296725729
  30    -0.0013215530039862
  31    -0.0092329433596085
  32    0.0034797520612804
  33     0.035268102193843
  34    -0.0015534629330896
  35     0.026412544432934
  36    -0.0030895751034182
  37    -0.0023031680728818
  38    -4.1745797270225e-05
  39    -0.0015977334044208
 Sym= A
 Ene=    0.0169431218
 Spin= Alpha
 Occup=    0.00000
   1     0.056198636817912
   2     -0.15056215768957
   3     -0.47866537576853
   4     -0.14758263006723
   5    -0.0069508955360759
   6     -0.13403505309786
   7    -0.098668933302406
   8    -0.098110933856013
   9     -0.21346921120971
  10    0.0038265941631389
  11     0.036195242006667
  12      0.03785163365819
  13    -0.0093910796604281
  14    0.0066299227790096
  15    -0.00029666528245805
  16    -0.0065240916662942
  17      0.12731019553355
  18    0.0032748201873831
  19     0.001654026576224
  20     0.016476731844481
  21     -0.20802627536345
  22    0.0026149182461205
  23    0.0031199945327291
  24    -0.00064657672133719
  25    -0.084601131848481
  26    -0.096666355201634
  27    -0.007356645045511
  28    -0.021410582662127
  29      0.38339432334388
  30    -0.014706193567517
  31      0.30889616398191
  32    -0.011626219771544
  33      0.23274524492967
  34    -0.0091864199025695
  35      0.26260294055754
  36    -0.015656741795283
  37      0.35528954124741
  38     0.058373223372153
  39      0.63800736665086
 Sym= A
 Ene=    0.1166737781
 Spin= Alpha
 Occup=    0.00000
   1     0.047832372053731
   2    -0.060570814529639
   3     -0.68193087179425
   4      0.07789458307937
   5     -0.19720080458154
   6     -0.24672110185094
   7     0.081118060605842
   8     -0.31059923873769
   9     -0.40258370083564
  10    0.00045528072729032
  11    0.0081958762849156
  12     -0.16972104472807
  13    0.0041000579328873
  14    -0.0015584997783682
  15    -0.00059309990170896
  16     -0.09620569515177
  17    -0.099586846593547
  18    -0.039759508110098
  19    -0.00017248093111789
  20    -0.00094976727036898
  21      0.15071802120895
  22    -0.0011016559120896
  23    -0.0015400408247621
  24    6.1795289235788e-06
  25     0.041016990374799
  26    -0.030845031363571
  27    -0.035319665261892
  28      0.01145764443981
  29     -0.16423657053684
  30     0.015708421055952
  31     -0.23692215397449
  32     0.022399871398655
  33      -0.3871412561485
  34     0.011861208810497
  35     -0.23284316546378
  36    -0.003097993323819
  37    -0.0048405202699427
  38      0.14107255297168
  39       1.3009452724697
 Sym= A
 Ene=    0.1492737175
 Spin= Alpha
 Occup=    0.00000
   1     0.015755591641347
   2    -0.064671759397012
   3    -0.034495783953191
   4    0.0090301888548652
   5      0.15953849678217
   6    -0.013525810926735
   7    0.0083243121167401
   8      0.11288656138862
   9    0.0098876091338272
  10    0.0082715705088727
  11     0.080643482114701
  12     -0.43007643405208
  13    -0.0065287178032078
  14    0.0084013391932493
  15    0.0011451032630255
  16     -0.28236353948259
  17     -0.12284058357811
  18    -0.033537872461876
  19    -0.0067226245089757
  20    -0.066379884058025
  21      0.76589654314109
  22    -1.8614104072431e-05
  23    0.0068135545587366
  24    5.3495072397536e-05
  25    -0.096299143827366
  26     -0.12294695513749
  27     0.030403805374012
  28    -0.025558428947394
  29      0.57260352628112
  30    -0.022109633043508
  31      0.43551117830812
  32    0.0021822909669909
  33     -0.35665016487746
  34     0.021398557881025
  35     -0.48116165629977
  36     0.028823295919285
  37     -0.63324380051974
  38     0.026912318914301
  39    -0.064692184087643
 Sym= A
 Ene=    0.2054523293
 Spin= Alpha
 Occup=    0.00000
   1    -0.022559669790428
   2     0.055302206448669
   3      0.18363558166959
   4    -0.0027464688373716
   5     0.062561846769973
   6    -0.084192428184563
   7    0.00084826415227642
   8     0.062535148044483
   9     0.020495205700065
  10    -0.00069922965079601
  11    -0.0073242346500513
  12     -0.04025160463623
  13    0.0009411833785152
  14    -0.0031418759645518
  15    -0.0044183222371954
  16      0.04929033064344
  17     0.050402210296785
  18      0.10311543812148
  19      7.7542259961e-05
  20    0.00054908851954401
  21    -0.046557383246061
  22    0.00041780816222694
  23    0.0012294965515989
  24    -0.014603899459391
  25     0.019451552312376
  26    0.0025517091683348
  27     0.027111026869386
  28    -0.052849404491331
  29      0.71367672947944
  30     0.054253023234213
  31     -0.63456245730748
  32    -0.00069353940789441
  33    0.0072528245447367
  34     0.041339458360985
  35     -0.46706986943736
  36    -0.039003062029753
  37      0.47551226714034
  38     -0.11595150715366
  39     -0.24343816430043
 Sym= A
 Ene=    0.2722698385
 Spin= Alpha
 Occup=    0.00000
   1    -0.010414058878899
   2     0.054157624647957
   3       0.1217002939383
   4      0.12712517611263
   5     -0.07950448719484
   6    -0.084663650252877
   7      0.15726336039646
   8      -0.2233058350756
   9     -0.13328670946422
  10    0.0020118568693122
  11     0.021376705147564
  12     -0.38242266305173
  13    -0.0049596719953524
  14    0.0057326085563332
  15    -0.0019045493754927
  16      0.40506943986907
  17     -0.30591657326282
  18    -0.0030113892325172
  19    0.0044829751706732
  20     0.045710130074738
  21     -0.38685491054948
  22    -0.010835493496694
  23    0.0046256197442514
  24    0.00039688678404076
  25    -0.069824486897688
  26       0.2468634450927
  27    -0.055370950484031
  28    -0.00089621138563909
  29    -0.098777134090518
  30    -0.010156521356635
  31     0.085320409700224
  32    -0.075851475426398
  33       1.2893840282775
  34     0.037510985359363
  35       -0.577057150337
  36     0.019477444737131
  37     -0.25734122539629
  38     0.089816330732315
  39      0.43157918542729
 Sym= A
 Ene=    0.2960298585
 Spin= Alpha
 Occup=    0.00000
   1    -0.006256944597225
   2     0.013534707836215
   3     0.092874640928022
   4    -0.039186316112312
   5     0.049013516764752
   6     0.056993545536296
   7    -0.013279403859524
   8     0.056410739717914
   9    -0.0052994833374247
  10    0.0002612387151209
  11    0.0013933594883763
  12      0.10015493741039
  13    -0.0027860620482526
  14    0.0016889008340505
  15    -0.016437034200132
  16    -0.040079993123238
  17    -0.026241824266482
  18      0.55836777416197
  19    -0.0015360005292486
  20    -0.015631005069367
  21      0.12687544112636
  22    0.0036670882755489
  23     0.001085639404058
  24    0.00034623638253749
  25    -0.028953787501759
  26    -0.059173911530562
  27     -0.43090778772275
  28     0.024714269367114
  29      -0.9400597436263
  30    -0.023886166956775
  31      0.91333808482351
  32     0.013300025386357
  33     -0.22985112690118
  34     0.047333261388583
  35      -1.0195757711634
  36    -0.052388812873865
  37       1.0977378164265
  38    0.0099103750011914
  39     -0.27833320331905
 Sym= A
 Ene=    0.3320735878
 Spin= Alpha
 Occup=    0.00000
   1     0.025431303962467
   2    -0.095621267261279
   3      -0.2114798922384
   4     -0.18055237467218
   5    0.0015498246546565
   6     -0.02506970092227
   7     -0.18120384624818
   8     0.047572234214374
   9    -0.0085616610755908
  10    -0.0031964122086178
  11    -0.036329160597698
  12       1.6101965540592
  13    -0.045570492088706
  14     0.021583774975455
  15    8.6090002863432e-05
  16      0.22871228894561
  17    -0.010767889652302
  18     0.077950889096715
  19    -0.010231959445111
  20     -0.10569037443814
  21      0.93300044537823
  22     0.022233367870686
  23      0.01075018361423
  24    -0.0011379424756033
  25      -0.1281034326311
  26      0.20147668378724
  27     0.053599556768338
  28     0.035458340651917
  29     -0.88808635822757
  30     0.036752279858979
  31     -0.80692879930853
  32    0.0094652254487175
  33    -0.041738489390359
  34     0.029797344461541
  35     -0.64615848919634
  36     0.037038667404554
  37     -0.81646522471674
  38    -0.020089776285103
  39     0.088247484476104
 Sym= A
 Ene=    0.4402013471
 Spin= Alpha
 Occup=    0.00000
   1     0.040423609212176
   2     -0.12733193177835
   3     -0.51532868401419
   4    0.0028239826946668
   5      0.19795095109127
   6    -0.0054660359093564
   7     -0.16538426127355
   8      0.39408669251648
   9     0.041202960654807
  10    -0.0082496949801397
  11    -0.080955549322272
  12       2.0649176686298
  13     0.017641387901825
  14     0.048526151413941
  15    0.0035270071380364
  16       -1.202334800081
  17     -0.82791640516801
  18    -0.035148284900864
  19    0.00023649091987804
  20    0.0035159778718996
  21      0.35947136511292
  22    -0.028527712859993
  23    -0.035936667402368
  24    -0.00038887902748693
  25     0.049347725217607
  26      0.42226907052077
  27    0.0009381867255386
  28    -0.0020548457687468
  29      -0.9965516743661
  30    -0.0045786628203483
  31      -1.0716534710362
  32    -0.026365948181731
  33      0.48200427646884
  34    -0.012954888734198
  35     -0.18844770310562
  36    -0.016580542822384
  37     -0.10400986455941
  38      0.02963821695199
  39     -0.16051699024534
 Sym= A
 Ene=    0.4895646802
 Spin= Alpha
 Occup=    0.00000
   1     0.028473523013311
   2    -0.083534731477527
   3     -0.59313897658098
   4    -0.069306389755299
   5     0.066208159733915
   6    0.0084650669508504
   7     -0.34648617101905
   8      0.17955132744392
   9    -0.032026001218777
  10    -0.0043915484073383
  11    -0.039912334566608
  12     -0.58986054897547
  13     0.037940312852108
  14    -0.051536369816687
  15    -0.022333801046857
  16     -0.80715853686759
  17       1.4805817917899
  18      0.97701315768994
  19    0.00016950741969895
  20    0.0005298234521778
  21     -0.17232322339749
  22     0.019007792585959
  23    -0.00079840584715034
  24     -0.00706233814279
  25      -0.2831019627368
  26      0.13776683593414
  27      0.15116034918924
  28    -0.0075320504462532
  29     0.049892068871962
  30    -0.0061677927190818
  31       1.5100307424582
  32    -0.041921582373985
  33      0.86520277307152
  34    0.0078581005235317
  35    -0.056798881840158
  36     0.036508298324755
  37     -0.58092318342842
  38    -0.078929161980361
  39     -0.33928001920447
 Sym= A
 Ene=    0.5117857715
 Spin= Alpha
 Occup=    0.00000
   1    -0.015931586661909
   2     0.056790571197271
   3      0.17700434971867
   4     0.031506450368418
   5     0.024301108608654
   6     -0.15448335239535
   7      0.10396842721179
   8    -0.044164542192022
   9     -0.23355329122848
  10    -0.0022339498186226
  11    -0.023721514024469
  12      0.68461163217714
  13    -0.020371113964051
  14     0.017595153115706
  15    -0.039642430890826
  16      0.39809186851495
  17     -0.46941473986134
  18       1.7959820016881
  19    0.0059599624793449
  20     0.059702675013038
  21     -0.65047661123569
  22    -0.013494300743125
  23     0.011271802507225
  24    -0.018851767438093
  25      0.39571534869445
  26     -0.26840394300917
  27      0.47536192797761
  28     0.010403111036524
  29      -1.7539417361845
  30    -0.00070920716845457
  31       1.0024216909604
  32     0.010276567219973
  33     -0.41990759706586
  34    -0.041159274641805
  35       1.1852301291815
  36     0.021731911241688
  37     -0.35926577013765
  38    -0.027600686519563
  39      0.14437440064957
 Sym= A
 Ene=    0.5238126966
 Spin= Alpha
 Occup=    0.00000
   1     0.018910847121637
   2      0.03475404669069
   3     -0.70553609369261
   4      0.11509057722152
   5     0.092672478105273
   6    -0.055650654381188
   7     -0.35054725692394
   8     0.075587681963647
   9    -0.0061198656103594
  10    -0.0069188369989881
  11    -0.063473319798443
  12       1.1108431951809
  13    -0.0016125103269229
  14    -0.027039846911223
  15    -0.0006523080355671
  16    -0.011977678745775
  17       1.5262398401929
  18     -0.10173604000704
  19    -0.00066613316951833
  20    -0.010207596730967
  21      0.34966429286241
  22    -0.075845332025842
  23     0.038412632595691
  24    0.0029211002366184
  25       2.2218450374769
  26     -0.71326251336865
  27    -0.077399575801163
  28    0.0044576486865532
  29      0.46917928808869
  30    0.0075076622565286
  31      0.28769632476322
  32    -0.019868822203164
  33      -1.8046304891426
  34     0.036698378163341
  35    -0.078266043633144
  36     0.030204261278368
  37       0.0563788529765
  38      0.14042899515375
  39    -0.035178076337755
 Sym= A
 Ene=     0.532713493
 Spin= Alpha
 Occup=    0.00000
   1    -0.022146026626327
   2     0.041223117275187
   3      0.47011705116876
   4     0.041914494415758
   5     -0.10159693560393
   6    -0.061615733966429
   7      0.27386742675518
   8     -0.17529701990099
   9    -0.055696748376559
  10    0.0048321547125046
  11     0.046900282870264
  12      -1.3906456489197
  13      0.02562718544278
  14    0.0084424211937604
  15    -0.0070961605483778
  16      0.25701984867124
  17     -0.65170951341794
  18      0.25078060890645
  19    -0.026754574533857
  20     -0.26788392377069
  21       3.1361397605546
  22    -0.014764207180101
  23    -0.058851912476277
  24    -0.0055478237972036
  25    -0.058771696815693
  26       1.2687641175127
  27      0.17711070763304
  28     -0.02116147307646
  29      0.13205518255448
  30    -0.026347469353345
  31      0.59432541298016
  32     0.028982792286875
  33     -0.35980202815058
  34    -0.0068260119692995
  35       -1.198200156232
  36    0.0061206036907596
  37      -1.5603350169863
  38    -0.0075582382727996
  39      0.21900041238575
 Sym= A
 Ene=    0.5766362504
 Spin= Alpha
 Occup=    0.00000
   1     0.013852040652421
   2    -0.044834433910295
   3    -0.082898951197644
   4     0.026930636923758
   5    -0.066625448004692
   6      0.12526998723648
   7    -0.0044073460999169
   8     0.011096911775023
   9     0.086346420827447
  10    -8.351982361392e-05
  11    -0.0012849683881442
  12     -0.25849158945108
  13     0.006726674073403
  14    -0.0036166174955296
  15     0.036672551525423
  16     -0.26319927470863
  17    -0.081201077516132
  18      -1.5408407875592
  19    -0.002575895875006
  20    -0.025476535214051
  21      0.29561119566909
  22    0.0027835114227991
  23     0.010298903105725
  24    -0.093471385304136
  25     -0.14256958796916
  26      -0.3077361499729
  27       2.3134832209739
  28     0.027205766803614
  29      0.60250102774001
  30    -0.030846137560802
  31     -0.65955830149917
  32    -0.0026468254384927
  33    -0.069750041705259
  34     0.028627125807412
  35        1.381792438892
  36    -0.025769492714558
  37      -1.2395589267412
  38      0.18024899718164
  39    -0.0099356313767943
 Sym= A
 Ene=    0.6241178165
 Spin= Alpha
 Occup=    0.00000
   1    -0.0079859010454898
   2     0.042530626790164
   3    -0.023670053552062
   4       0.1603527595644
   5     0.055171733887111
   6    -0.020088854949659
   7      0.15341994942017
   8      0.12527949987656
   9    -0.028669168995029
  10    0.00060025578616102
  11    0.0033928883391864
  12       -2.285085020737
  13     0.068584464882893
  14    -0.0075390819335448
  15    -0.0074615006143103
  16      -1.8931945695126
  17      -1.1626897973401
  18      0.30036568044161
  19    -0.021106188160948
  20     -0.20826164973023
  21       2.8603733946381
  22     0.018529867282951
  23     0.055227374846327
  24     0.012410790446126
  25      -1.2371052784755
  26      -1.9294824910605
  27     -0.29851722613145
  28    -0.011030108190243
  29     -0.43156823871968
  30    -0.0020998575582516
  31     -0.14046188124801
  32    0.00074052022169653
  33     -0.67553504194331
  34    0.0010272604762704
  35      0.23190417657307
  36     0.011376262210056
  37      0.50392806980201
  38    -0.015257492342069
  39    -0.019051679515262
 Sym= A
 Ene=    0.8600108296
 Spin= Alpha
 Occup=    0.00000
   1     0.014407667907626
   2     -0.10693226274746
   3      0.28374916554018
   4      -0.4103154078112
   5    -0.081878035682309
   6     -0.51987359605488
   7      0.51081446541902
   8     -0.21061119126164
   9      0.17272627098012
  10    -0.003577006796835
  11    -0.045118420100901
  12     -0.40081326259674
  13     0.034626287000005
  14     -0.03970859461028
  15    -0.017972405419231
  16     -0.10010657325723
  17    -0.013222160958182
  18      0.19635599579985
  19    0.0006345683370795
  20    0.0077460726289603
  21    -0.015278898086066
  22      -0.0025751002794
  23    0.0041806785093931
  24    0.0006004466326344
  25     -0.20293215853226
  26    -0.093552322010206
  27     -0.17677403224468
  28     0.014337726840343
  29     0.022467242452776
  30    -0.00013698507757382
  31      0.12530056298848
  32    -0.0044899881721697
  33     0.096664670673117
  34    0.0089816175808328
  35    -0.022143181855899
  36    -0.0066430130158322
  37      0.24599830345904
  38       1.0865747291654
  39     -0.96554924435994
 Sym= A
 Ene=     1.020936244
 Spin= Alpha
 Occup=    0.00000
   1     0.023990483995453
   2     -0.14479470404601
   3     -0.09624112910333
   4     -0.24144684079999
   5      -0.7077602265836
   6       0.5025604786262
   7      0.23991687759712
   8      0.98691964897802
   9     -0.78671592829629
  10    -0.0055250861274819
  11    -0.053539400591587
  12      0.33716979275643
  13    -0.0077980253841522
  14    -0.0050801162331621
  15     0.013882370167418
  16     -0.56793926351304
  17     -0.14748234337661
  18      0.73503004308851
  19    -0.0063272229657685
  20    -0.064151082126153
  21      0.48433881445709
  22    0.00027236771804106
  23    -0.0027118424353738
  24    0.0094284560677524
  25      0.23735381442235
  26     -0.38506767488986
  27     -0.42816841654476
  28     0.031116246167102
  29     -0.43784567906613
  30    -0.029867556843327
  31      0.20712457353616
  32     0.018806221618735
  33     -0.38315419848171
  34    -0.031618446860676
  35     -0.17674673617254
  36    -0.021553988722143
  37      0.30472674496002
  38      0.22338028530941
  39     -0.24108382335169
 Sym= A
 Ene=     1.069607235
 Spin= Alpha
 Occup=    0.00000
   1    -0.057672945234435
   2      0.46230184693538
   3     -0.29296132732835
   4      -0.7607999521012
   5      0.18394358346797
   6     0.046196083256628
   7       1.1930085902823
   8     -0.20213906664669
   9      0.12952644642737
  10     0.018096042658882
  11      0.17923912830308
  12      -1.1432298418104
  13    0.0073995485186478
  14    -0.0090550149485056
  15    -0.0089894412096916
  16     -0.24695027189866
  17     -0.38140519946432
  18     -0.40160945529692
  19    -0.0083807795775576
  20    -0.081624312020989
  21      0.82088773115228
  22    -0.012466432883158
  23    -0.0031620986970316
  24    -0.0053262230493566
  25      0.23753524760663
  26     -0.48112028922314
  27      0.26904376063473
  28     -0.01537853697344
  29      0.21998118467564
  30     0.047092469005678
  31     -0.13347636082978
  32     0.034535098745056
  33     -0.50809433257867
  34    -0.031955159314142
  35      0.22659853415393
  36    -0.038465815925327
  37     -0.16952569762078
  38     -0.63289896916533
  39      0.86018065945197
 Sym= A
 Ene=     1.176816133
 Spin= Alpha
 Occup=    0.00000
   1    -0.0033810547734201
   2    -0.047133447824284
   3      0.07540906205046
   4     0.089260118121339
   5     -0.57748836073698
   6     -0.62723439167488
   7     -0.35977413334043
   8       1.3545841310243
   9       1.3962698960521
  10     0.024454743791765
  11      0.26235409205174
  12     0.063003689831644
  13    -0.053153697918497
  14     0.059691758438145
  15    0.0061738422528722
  16     -0.80952514439576
  17      0.15056640289275
  18     -0.73876735551639
  19    -0.002741176310904
  20    -0.026782997869834
  21      0.25021741098901
  22    -0.0096132090524491
  23    -0.004172044955737
  24    0.00082141115508686
  25    -0.025249620890562
  26      -0.4170438101971
  27      0.30825750941526
  28    -0.020610038977903
  29      0.39242037068284
  30     0.048214900049538
  31     -0.23090296977283
  32    0.0062480366096555
  33     -0.11291452042811
  34    -0.025974079064466
  35      0.27994436343627
  36    0.0043877611503569
  37     0.062359802163208
  38     -0.52500715367667
  39     -0.70604645506095
 Sym= A
 Ene=     1.479686856
 Spin= Alpha
 Occup=    0.00000
   1     0.024800277103347
   2     -0.89774234050918