[Molden Format]
made by pyscf v[1.7.5.1]
[Atoms] (AU)
O   1   8    -2.21324723709060     0.56635091953215     0.00000000000000
GHOST-C   2   0    -0.08749431956736    -1.07052984956611     0.00000000000000
GHOST-C   3   0     2.30074155665796     0.50417893003396     0.00000000000000
GHOST-H   4   0    -0.18103576273333    -2.29034806297285     1.66654946925393
GHOST-H   5   0    -0.17990192705859    -2.25595504750577    -1.69054899103590
GHOST-H   6   0     3.97787349220946    -0.70297811833820    -0.03344815240480
GHOST-H   7   0     2.34817368238455     1.75876810413270    -1.64481761882143
GHOST-H   8   0     2.38407847875128     1.71058008795629     1.67921063428851
H   9   1    -2.13368976724641     1.58056693058622     1.53048918828524
[GTO]
1 0
 s    6 1.00
             5484.6717   0.001831099805527
             825.23495   0.013950098518422
             188.04696    0.06844509273075
               52.9645    0.23271427528445
              16.89757    0.47019295006289
             5.7996353    0.35852086192309
 s    3 1.00
             15.539616   -0.11077750382508
             3.5999336   -0.14802630511126
             1.0137618     1.1307670390447
 s    1 1.00
             0.2700058                   1
 p    3 1.00
             15.539616   0.070874299543311
             3.5999336    0.33975279781076
             1.0137618    0.72715859531445
 p    1 1.00
             0.2700058                   1

2 0
 s    6 1.00
             3047.5249  0.0018347001629433
             457.36951    0.01403730124668
             103.94869   0.068842606114048
             29.210155    0.23218442062076
              9.286663    0.46794134155879
              3.163927    0.36231203217765
 s    3 1.00
             7.8682724   -0.11933240861517
             1.8812885   -0.16085421161283
             0.5442493     1.1434564825515
 s    1 1.00
             0.1687144                   1
 p    3 1.00
             7.8682724   0.068999095584993
             1.8812885    0.31642397975315
             0.5442493    0.74430825237435
 p    1 1.00
             0.1687144                   1

3 0
 s    6 1.00
             3047.5249  0.0018347001629433
             457.36951    0.01403730124668
             103.94869   0.068842606114048
             29.210155    0.23218442062076
              9.286663    0.46794134155879
              3.163927    0.36231203217765
 s    3 1.00
             7.8682724   -0.11933240861517
             1.8812885   -0.16085421161283
             0.5442493     1.1434564825515
 s    1 1.00
             0.1687144                   1
 p    3 1.00
             7.8682724   0.068999095584993
             1.8812885    0.31642397975315
             0.5442493    0.74430825237435
 p    1 1.00
             0.1687144                   1

4 0
 s    3 1.00
             18.731137    0.03349459952309
             2.8253937    0.23472694665786
             0.6401217    0.81375731841339
 s    1 1.00
             0.1612778                   1

5 0
 s    3 1.00
             18.731137    0.03349459952309
             2.8253937    0.23472694665786
             0.6401217    0.81375731841339
 s    1 1.00
             0.1612778                   1

6 0
 s    3 1.00
             18.731137    0.03349459952309
             2.8253937    0.23472694665786
             0.6401217    0.81375731841339
 s    1 1.00
             0.1612778                   1

7 0
 s    3 1.00
             18.731137    0.03349459952309
             2.8253937    0.23472694665786
             0.6401217    0.81375731841339
 s    1 1.00
             0.1612778                   1

8 0
 s    3 1.00
             18.731137    0.03349459952309
             2.8253937    0.23472694665786
             0.6401217    0.81375731841339
 s    1 1.00
             0.1612778                   1

9 0
 s    3 1.00
             18.731137    0.03349459952309
             2.8253937    0.23472694665786
             0.6401217    0.81375731841339
 s    1 1.00
             0.1612778                   1

[5d]
[7f]
[9g]

[MO]
 Sym= A
 Ene=    -19.43959014
 Spin= Alpha
 Occup=    2.00000
   1      0.99552928938739
   2     0.027598837986488
   3    -0.017884656544789
   4    0.0014921964137994
   5    -0.00036909545997397
   6    0.0017752975632434
   7    -0.0039248574153601
   8    0.0015625099605711
   9    -0.001537919594939
  10    0.00032831424928715
  11    0.00079870701300641
  12     0.010261926184289
  13    8.6182973386345e-05
  14    -0.00055377315382841
  15    -0.00042981215215769
  16    -0.0024594559483473
  17     0.002005470926917
  18    0.00011129229483226
  19    -0.00027686404615359
  20    -6.7743339067421e-05
  21    -0.00044433786341635
  22    -0.00086395799152633
  23    0.00063582634729418
  24    5.3517487773984e-05
  25    -0.00043163018881415
  26    0.0010880991920467
  27    -6.8098564646431e-05
  28    0.00011475783906243
  29    -0.00061127100883601
  30    0.00082434442581194
  31    0.00010423789819425
  32    -0.00092096805530525
  33    -5.3452180746899e-05
  34    0.0002628878239914
  35    -0.00017252454293831
  36    0.00050968977716608
  37    -0.00029519915528848
  38    0.00047709087313548
  39    0.0026379716182762
 Sym= A
 Ene=    -1.164669538
 Spin= Alpha
 Occup=    2.00000
   1     -0.21448263173011
   2      0.46968641435257
   3      0.51695758647926
   4     0.078055324721041
   5     0.014105279096438
   6     0.079200501132464
   7     0.056302667851266
   8    -0.0053972477978484
   9     0.033962730007508
  10    -0.0084325864605837
  11     0.053061041855197
  12    -0.050749181886139
  13     -0.10043978772413
  14     0.082035326050602
  15    0.00046142536982916
  16     0.010777163362998
  17    -0.0044642215877886
  18    -0.0009028368238266
  19    0.0020132950353505
  20    -0.0084241942260852
  21     -0.01665355039407
  22     0.022386530632955
  23    -0.0044026023722451
  24    -0.001723607636406
  25    0.0099284965573937
  26    -0.0017991287509591
  27    4.9494622497392e-05
  28    -0.014887403988184
  29    -0.0098690116548861
  30    -0.012952867184944
  31     -0.00722748435668
  32     0.016068627205488
  33     0.016058652670575
  34    -0.0066630086518345
  35    -0.00089201907620435
  36    -0.0085539981879885
  37    -0.00060975511664954
  38      0.14286493277375
  39    -0.0064926376613262
 Sym= A
 Ene=   -0.6082251112
 Spin= Alpha
 Occup=    2.00000
   1     0.028836602157774
   2    -0.066353617435484
   3     -0.12784691559014
   4     -0.10551607202716
   5       0.3174854717233
   6      0.39068325611154
   7    -0.031362345655127
   8      0.14661397372191
   9      0.21580601283132
  10     0.013803417445273
  11    -0.099989890690169
  12    -0.071504104107056
  13      0.16589208677653
  14     -0.12700947274093
  15    0.0022027174164556
  16     0.057857582832778
  17    -0.037777170424371
  18     0.025248905630418
  19    -1.4433255447114e-05
  20    -7.1802825073234e-05
  21    -0.010635304470758
  22    -0.008608379428668
  23    0.00014230968449393
  24    -0.0094700116916778
  25    -0.012995989325861
  26    0.0079331272699394
  27    -0.027978913337078
  28     -0.00146037990374
  29    -0.011094106751183
  30       0.0430921036721
  31     0.084053708496974
  32    -0.011526433146919
  33    -0.0091930196065948
  34    0.0068204208642919
  35    -0.0088863155719258
  36    0.0026408204207599
  37     0.025017541195026
  38      0.29782533339599
  39       0.1672690057109
 Sym= A
 Ene=   -0.5200033777
 Spin= Alpha
 Occup=    2.00000
   1     0.066540484637011
   2     -0.15413325551408
   3     -0.26752268774525
   4      0.42567848077579
   5     -0.17634477525085
   6      0.30615400628828
   7      0.28768237793654
   8     -0.11824960567155
   9      0.21737052096469
  10    -0.017679577056188
  11      0.11921745196938
  12     0.096375222520216
  13     -0.19745322257762
  14       0.1583063617102
  15    0.0022412985643497
  16    -0.020971886834281
  17     0.078345741819272
  18     0.085201943125666
  19    0.0036401856679806
  20    -0.0099357519239521
  21    -0.088761457117329
  22     0.033883194732869
  23     0.007783060189624
  24    -0.0072011445078607
  25     0.050395853820949
  26     0.028163439332643
  27    -0.052062818653318
  28    -0.038704345769385
  29     -0.10355490187426
  30     0.019036571822737
  31     0.061551643769862
  32     0.028321641467303
  33     0.044900071927517
  34    -0.010245345001988
  35    -0.045028035490341
  36    -0.011159378761802
  37      0.02192273824005
  38     0.058631170174625
  39     0.037230272749431
 Sym= A
 Ene=   -0.4845584486
 Spin= Alpha
 Occup=    2.00000
   1    0.0095431210194411
   2    -0.024593803792389
   3    -0.0034394358430006
   4      0.37176548948734
   5      0.44693596674402
   6     -0.27930753871343
   7      0.29076631606083
   8      0.33023638760894
   9     -0.21645387072852
  10    -0.00082305097903651
  11    0.0032305977935851
  12    0.0018576588610955
  13    0.0067646537108083
  14     0.017441798578811
  15    -0.0051969135896811
  16     0.067325875972579
  17    0.0069307468805767
  18    -0.034204285000574
  19    0.0055541473563245
  20    -0.033530022724232
  21     -0.14489998725944
  22     0.049769604809253
  23     0.016355753413238
  24    0.0033553401517084
  25    -0.0055671471856111
  26     0.082131246336817
  27     0.032894695501143
  28     0.046569747518666
  29     0.090310250299633
  30    0.00078212762234215
  31    -0.0062973199165668
  32     0.022619571621436
  33     0.099056707840799
  34    -0.010390740909167
  35     0.025053945083031
  36    -0.011993559082088
  37    -0.014321679319261
  38     0.012663937755301
  39    0.0076140917821723
 Sym= A
 Ene=   -0.1364478778
 Spin= Alpha
 Occup=    0.00000
   1     0.056349333688178
   2    -0.096694177631542
   3      -0.7347122979948
   4    -0.019477555385453
   5      -0.1518444850951
   6     -0.22620129857508
   7    -0.086177925362059
   8     -0.24022297173462
   9     -0.32881430237322
  10    0.0076874848604852
  11     0.059187641201299
  12     -0.40851324695737
  13     0.012451422468116
  14    -0.016445751059625
  15    -0.0071140885056451
  16    -0.091965113979078
  17      0.27930107092092
  18     -0.10327002801137
  19    0.0085037186034716
  20     0.087104227487641
  21     -0.68368035897717
  22    -0.011704485489963
  23     0.013039233939849
  24    0.00061400496373286
  25     -0.16061877755873
  26     -0.23991548734421
  27     -0.03551023675528
  28    0.0025339988481153
  29      0.52451848846711
  30     0.009690870527916
  31      0.30667921341589
  32    -0.0078059660880087
  33      0.31553912889155
  34    0.0002725386053281
  35      0.35500437971376
  36    0.0049503647130448
  37       0.5506436042506
  38      0.15256815554837
  39       1.0379636905277
 Sym= A
 Ene=   0.06566137336
 Spin= Alpha
 Occup=    0.00000
   1    -0.017060930384994
   2    -0.049646736744357
   3      0.37326611782074
   4     -0.13337074429723
   5      0.18468519349418
   6      0.14535696653961
   7     0.042988788192468
   8      0.14978450008512
   9      0.18948383066679
  10    0.0098904926315325
  11     0.053968985056253
  12      0.65650271586088
  13    0.0045269638491267
  14    0.0048899960515293
  15     0.009489986525612
  16      0.12796022061798
  17     -0.26906395034459
  18     0.093316917207615
  19    -0.0061119192926743
  20    -0.051633160577206
  21      0.55214023726832
  22    -0.012401055399249
  23    0.0010366251742012
  24    0.0011122520874401
  25     0.030050425214196
  26     0.069955138021011
  27      0.00983014189129
  28    -0.0059507684837615
  29    -0.014025885840166
  30    -0.016967426976227
  31      0.10115737406724
  32    -0.016818666901457
  33     -0.18494446238409
  34    0.0015029368726204
  35    -0.021826427235939
  36    -0.00028391972816391
  37     -0.19463229294803
  38     -0.12474925049848
  39     -0.59184601650233
 Sym= A
 Ene=    0.1512297377
 Spin= Alpha
 Occup=    0.00000
   1    -0.018574202804392
   2     0.079918988566816
   3      0.14119152282565
   4    -0.027934506966141
   5    -0.031056206167713
   6      0.10083652242926
   7    0.0054046183927245
   8    0.0064436242372432
   9     0.058538977645894
  10    -0.0023399417105723
  11    -0.010105221186288
  12     -0.12439307042711
  13    -0.0015006706276905
  14    -0.0038962451062703
  15    0.0071358514501815
  16      0.11852966099336
  17      0.16035905415092
  18    -0.047040005880885
  19    -0.010300285778625
  20     -0.10468643367522
  21      0.29393015825722
  22    -0.0074673562465031
  23    -0.013882941250677
  24    -0.00024258225858564
  25     0.087388543294218
  26      0.10532634721333
  27     0.021064441998432
  28     0.012486186910754
  29     -0.19267928636434
  30    0.0087662724494449
  31     -0.19551332514714
  32    -0.013717977643787
  33      0.32980990967229
  34    -0.029283685539971
  35      0.29975035556526
  36     -0.02655397080419
  37      0.20128701769644
  38    -0.086802662409952
  39      -0.1941687616905
 Sym= A
 Ene=    0.2110474055
 Spin= Alpha
 Occup=    0.00000
   1     0.010541867572766
   2    -0.040624278137504
   3    -0.049207378666332
   4     0.036651065830899
   5    -0.054826779466151
   6     0.064181380396372
   7    0.00019077625667677
   8     -0.04770159128534
   9    -0.050228819330135
  10    -0.001124397966405
  11    -0.0099836202557916
  12      -0.1141101548774
  13    -0.00076826897907689
  14    0.0019639972095989
  15    0.0065661439574902
  16    -0.0013974793315689
  17    -0.055347869360381
  18      -0.4528956512452
  19    0.0013422552166231
  20     0.011895694555308
  21    -0.097613312903879
  22    -0.0016730534124751
  23    -0.0015455794585979
  24     0.021349271986699
  25    0.0019512477419782
  26     0.028032295712757
  27     -0.10443622941652
  28     0.026142783289532
  29     -0.31799321717433
  30    -0.044718803756724
  31      0.49576011746444
  32    -0.00081054327871192
  33      0.13229962560198
  34    -0.026274858010725
  35      0.22845644858147
  36     0.023434394228102
  37     -0.25283397256036
  38      0.16171010410238
  39       0.1038330358626
 Sym= A
 Ene=    0.2592660266
 Spin= Alpha
 Occup=    0.00000
   1    -0.0075684905141257
   2     0.071230781953745
   3    -0.013118047314014
   4      0.14064885802695
   5     0.048557901012883
   6    -0.019749881142394
   7     -0.00596942735938
   8    -0.061759383775455
   9    -0.035603913731592
  10    -0.0061818937948879
  11    -0.026526085922334
  12     -0.21455652545569
  13    -0.028370778994648
  14     0.022030698352452
  15    1.6401368138098e-05
  16     -0.06361669467332
  17     -0.11008612427394
  18     0.014949062875824
  19    0.00021157630821589
  20    -0.016134738208961
  21     -0.15862720447053
  22    -0.020937838963591
  23     0.032038774188882
  24    -0.0048715747080663
  25      0.36849306614225
  26     -0.35226559333576
  27     0.021204042629285
  28    -0.0027531187673754
  29      0.20514893814137
  30    -0.0048534393998084
  31      0.06107171388207
  32    -0.041264468384234
  33      0.63613865208634
  34      0.01597539251881
  35     -0.16550999407003
  36    0.0053827809233154
  37    -0.090742335731602
  38     0.024425611361827
  39     0.092320715965021
 Sym= A
 Ene=    0.2959527159
 Spin= Alpha
 Occup=    0.00000
   1    0.0051412683999398
   2     0.011184321759316
   3     -0.14593587465867
   4      0.03383710340579
   5     0.015893701816556
   6    -0.032649432210539
   7    -0.046131979800608
   8    -0.032457114250884
   9    -0.055606190196688
  10    -0.0013479890960681
  11    -0.0096013222961844
  12    -0.090205713126784
  13    -0.0021667209864274
  14    -0.0023204604299784
  15    0.0022527756626857
  16    -0.048394948512009
  17      0.11265008720036
  18      0.38571870915658
  19    0.0003552923884834
  20    -0.0010682548673515
  21     -0.16836201914238
  22    -0.0017233946522841
  23    0.0046694000588617
  24     0.031460985416119
  25      0.05199985442643
  26    -0.063572334296096
  27      -0.4255813862498
  28    -0.003905242107717
  29      0.34712578365312
  30      0.01709115809888
  31     -0.18871380934002
  32    0.00073478452708406
  33    -0.00084682143419309
  34    -0.047366518386399
  35      0.69863836593817
  36      0.04117977677177
  37     -0.54360274289791
  38     -0.11223024846686
  39      0.23069096688259
 Sym= A
 Ene=    0.3590045785
 Spin= Alpha
 Occup=    0.00000
   1     0.014295090012167
   2    -0.070289595561297
   3    -0.047514801000796
   4     -0.10065000102664
   5     -0.14051481068993
   6    -0.067060275074999
   7    -0.027064281680857
   8    -0.039849354873997
   9    -0.042278082537667
  10     0.010376187162197
  11       0.1069275705966
  12    -0.0098208825355892
  13    -0.011734854915713
  14    0.0012848586299115
  15    -0.0065102535628346
  16      0.44484950909651
  17      0.44291083013924
  18    -0.013679916242681
  19     0.004057002459803
  20      0.05701100054703
  21    -0.033397195070732
  22    0.0058631868202972
  23     0.035336827724345
  24    0.0043976397413519
  25     -0.33967429164546
  26      -0.4320291010213
  27    0.0010196747018567
  28     0.026808263064056
  29     -0.19305087161392
  30     0.035743516399322
  31     -0.16485131256222
  32    -0.0076461341750179
  33      0.19761886217935
  34     0.035230233398369
  35     -0.20808544535668
  36     0.046565526557779
  37     -0.36199250999582
  38    -0.0053280377065247
  39      0.25850230859986
 Sym= A
 Ene=     0.686232746
 Spin= Alpha
 Occup=    0.00000
   1     0.019916881960894
   2    -0.097451869208177
   3      0.13256680376955
   4     -0.17261703463174
   5     -0.18687313346161
   6     -0.58575103794083
   7      0.28926533309326
   8     0.016410589448179
   9      0.17594700648182
  10     0.031824599977041
  11      0.32778524041633
  12       0.4383294531439
  13     0.010152358714797
  14    -0.015118857484973
  15    -0.023314001208435
  16      0.12531258939651
  17     -0.39530221283397
  18      0.27011250441753
  19     0.021191086090442
  20       0.2378333755217
  21      0.59867917941887
  22    -0.027143609370981
  23     0.001437772550391
  24     0.017235311784834
  25      0.64043296164038
  26       0.2600514309915
  27     0.084453750687386
  28    0.0056217720291819
  29     -0.57469922718916
  30     0.026379981056264
  31     -0.17231053683646
  32    -0.025654348041312
  33     -0.53063158657928
  34     0.033819851121521
  35     -0.12192690089149
  36     0.044131348697745
  37     -0.49190130967792
  38      0.69834555654597
  39     -0.23288311604327
 Sym= A
 Ene=    0.8379790335
 Spin= Alpha
 Occup=    0.00000
   1    -0.034682457955897
   2      0.35304614042643
   3     -0.17004909906467
   4     -0.01896902485799
   5     -0.33017745457395
   6    0.0065871498866698
   7      0.12911640961947
   8      0.16006498778392
   9     -0.14122336235246
  10    -0.033919785504427
  11     -0.31567791038286
  12     -0.33741659230963
  13    -0.080485746756151
  14      0.10149802311207
  15     0.028525473439779
  16      0.44895370903209
  17     0.063308764753678
  18      0.70641928703086
  19    -0.0024173534501172
  20    -0.024322693471903
  21     0.049611414187303
  22      0.03051893323958
  23    0.0057180040404825
  24    0.0077219519789797
  25     -0.01756468432553
  26      0.27321142274655
  27       1.1979646438516
  28    -0.073700951655028
  29     -0.29319728459986
  30    -0.051349956416383
  31       1.2789444345143
  32     0.057000056258892
  33    -0.046639509570805
  34    -0.0030602000558907
  35      0.92295369054582
  36    -0.038964370595224
  37      -1.2652311759712
  38    -0.0033459085592601
  39     0.071049157727468
 Sym= A
 Ene=    0.8700338396
 Spin= Alpha
 Occup=    0.00000
   1    -0.039562317975619
   2      0.49063888763243
   3     -0.29007589615396
   4     -0.17747048769297
   5      -0.1875731147652
   6    -0.056889843944139
   7      0.35430349261603
   8     -0.17372197748126
   9     -0.11713722647486
  10    -0.052422862322649
  11     -0.52917734844985
  12     -0.18753997544453
  13     -0.01995015061363
  14     0.024072828618838
  15    -0.022938594498858
  16      0.21801575246821
  17    -0.011378353424524
  18     -0.31677206048226
  19    -0.015234178466852
  20     -0.16436616215892
  21     -0.17052403972099
  22     0.033465889750833
  23    0.0045810931991666
  24    -0.011468764824882
  25     -0.29675985496466
  26     -0.29057128945029
  27     -0.65782861201527
  28    -0.034738147628782
  29      0.77305937901689
  30    -0.063734366034684
  31     -0.28816705323616
  32     0.026195678678239
  33     -0.11852947164763
  34    -0.0099734565851049
  35     -0.30105222553122
  36    -0.0046401203462389
  37       0.8854334608175
  38       0.7495439332889
  39     -0.59025327332992
 Sym= A
 Ene=    0.9318992371
 Spin= Alpha
 Occup=    0.00000
   1    -0.031431987475272
   2      0.41131807958713
   3     -0.13635000464753
   4      0.11011082240564
   5     -0.19304851984128
   6    -0.053813599362494
   7     -0.22761079796228
   8      0.16684124916839
   9      0.10853677595084
  10     0.069555520283375
  11      0.73139863723781
  12     0.069075817366161
  13     -0.22215265020707
  14      0.10848889948249
  15    -0.0088074419320547
  16       0.7569578195253
  17     -0.25993711948762
  18     -0.11121133678105
  19    -0.055236416548016
  20     -0.58504764216941
  21     -0.71557378573357
  22    -0.0076310232977311
  23    -0.039228478530594
  24    0.00036291851433037
  25       0.2154191251091
  26    -0.045236863636077
  27     0.067585404894618
  28    0.0090401144912116
  29     -0.18471110594299
  30     0.033437208374215
  31     -0.24818953844529
  32     -0.12741771620235
  33    -0.035738322157321
  34     -0.06640913237752
  35       0.5922155105925
  36    -0.042537334390523
  37      0.46569728035677
  38     -0.11572108049605
  39      0.19644469789858
 Sym= A
 Ene=    0.9663150123
 Spin= Alpha
 Occup=    0.00000
   1     0.011352624382392
   2     -0.13345560608606
   3      0.21186841260956
   4     0.093993415904651
   5     -0.70615895846809
   6      0.36200053540192
   7    -0.070075698396824
   8      0.98095885811661
   9     -0.29813558659902
  10     0.017694895871112
  11      0.23092774285091
  12     0.022252287627017
  13     -0.14096561138418
  14      0.15317200043625
  15    -0.040660984558217
  16    -0.018488804112518
  17     -0.42512328726917
  18     -0.20523843551736
  19     0.032519466961399
  20      0.35313059534289
  21      0.36493453792357
  22     0.014733390023329
  23    0.0050266275236539
  24    -0.022176500893425
  25      0.21921919278453
  26      0.20476629984012
  27     -0.42298727641549
  28     -0.04241046403675
  29      0.42927299025871
  30    -0.061219781185651
  31     -0.32227631181619
  32     0.062303798561996
  33     -0.29845433792833
  34     0.023772444723468
  35      -0.6652661200452
  36     0.019470526447507
  37      0.14221935758341
  38     -0.19312357029573
  39      0.09017818045007
 Sym= A
 Ene=     1.022799078
 Spin= Alpha
 Occup=    0.00000
   1     -0.05703499367555
   2      0.45206646801618
   3     -0.18452401378141
   4       0.1787793266934
   5     0.041487476458819
   6     -0.52038462716792
   7     -0.12056759345661
   8       0.1753033369453
   9      0.96823711484824
  10    -0.016170106458089
  11     -0.13344269186465
  12     -0.16393641904945
  13     -0.10963769118519
  14      0.12975627747027
  15     0.044524771054811
  16      0.12654770240556
  17     -0.19034689376947
  18     -0.19179289350115
  19     0.024771656746276
  20      0.25154880375026
  21        0.229581326184
  22     0.041415981494797
  23    0.0019729455972898
  24    0.0044265679392909
  25    -0.093808550287751
  26     0.066582976124916
  27     -0.64742638162638
  28    -0.039031562002931
  29     0.092359758180393
  30    -0.081542612866477
  31      0.24878667700783
  32     0.073115527012091
  33     -0.22489290136424
  34    -0.025727143233406
  35     -0.64772324161641
  36     0.076501259448778
  37      0.38669046399002
  38     -0.72790465684811
  39      0.26129976574791
 Sym= A
 Ene=     1.056266552
 Spin= Alpha
 Occup=    0.00000
   1    -0.021727234741862
   2      0.16002850293311
   3     -0.23901506159003
   4      -0.8162731640062
   5     -0.12150119671473
   6    -0.023909640655512
   7      0.89946646863289
   8      0.36381654336704
   9      0.22471680322136
  10     0.013880650626099
  11     0.091603223677635
  12    -0.098954912177031
  13      0.17308330079911
  14    -0.098441690561055
  15     0.030586668220522
  16     -0.47765875474727
  17     0.056364508177059
  18    -0.023392287146867
  19    -0.0064830446567385
  20    -0.038015091582167
  21     -0.17073644367256
  22     -0.11933533790205
  23    0.0074064813317626
  24    -0.0026642038903013
  25      0.10444283578505
  26      0.23364126945675
  27     -0.18227904718709
  28     0.089065481047412
  29    -0.062310990372049
  30     0.045673336781872
  31     0.085806543542122
  32    -0.029254338306217
  33       0.5771053306516
  34    -0.043002908374745
  35     -0.30923177739589
  36    -0.028305149689037
  37    -0.009624580517941
  38     -0.44642780913384
  39       0.2159024281099
 Sym= A
 Ene=     1.409792293
 Spin= Alpha
 Occup=    0.00000
   1    -0.028818486344546
   2      0.58516996854863
   3      -1.0410695347973
   4     -0.20533460313554
   5      0.30393509925795
   6       0.3515374683159
   7      0.33156599515942
   8     -0.55198857830386
   9     -0.74071642935655
  10     0.015406952633433
  11      0.14534104099827
  12     0.069644658615268
  13      0.08066401241199
  14     0.071691137167978
  15    -0.097354694474764
  16      0.38856904538346
  17      0.65872057127437
  18      0.19880832459095
  19     0.039746034771516
  20      0.40600143805125
  21     -0.37613583786592
  22      0.05194940356327
  23     -0.09355051233346
  24    -0.020302937168827
  25       1.4372299318875
  26     -0.52515816784385
  27    -0.040041733218362
  28     -0.16207920525912
  29      0.34195724634222
  30       0.1309229276966
  31      0.24681531248909
  32    -0.083773436889141
  33      -1.3940934888259
  34    -0.001456065706372
  35       0.2890135685122
  36     0.026907065457345
  37      0.14687270672648
  38     -0.10888037736465
  39       1.0575465028071
 Sym= A
 Ene=     1.734177486
 Spin= Alpha
 Occup=    0.00000
   1     0.034157270257886
   2      -0.5607407518868
   3      0.57519613621824
   4     0.012496763673877
   5    -0.095397786130563
   6     -0.17201049481939
   7     -0.25787414922372
   8      0.20645245814231
   9       0.4350863985565
  10    -0.024377938846942
  11     -0.24938350576336
  12       0.5292676607323
  13      0.18708146249872
  14       0.2109734241972
  15      0.11490427074734
  16      0.37304914235841
  17        1.192904464036
  18     -0.13315201618831
  19    -0.055679155314273
  20     -0.55607509121452
  21      0.62201740509312
  22    -0.037685305641187
  23    0.00076651909813598
  24     0.030580616659818
  25       1.3371188432457
  26      0.31389868071607
  27      -0.2430940486114
  28      0.12804864472654
  29      0.59110168766808
  30     -0.12091615711627
  31      0.65099415574186
  32     -0.42025212350349
  33     -0.63486833058598
  34     -0.37732514041907
  35     -0.46450994150954
  36    -0.078431592123289
  37     -0.18284114346673
  38    -0.021580638010699
  39      -0.5852165552866
 Sym= A
 Ene=     1.824890678
 Spin= Alpha
 Occup=    0.00000
   1     0.020735708156178
   2     -0.55615197483478
   3       0.7227791984916
   4     -0.15548176365519
   5     -0.12813820966057
   6    -0.070120877059772
   7      0.48529580386123
   8      0.44073250885008
   9      0.19996544906067
  10    -0.070524230745393
  11     -0.70223690231597
  12       1.1381742465876
  13     0.077072403728116
  14      -0.1351233575326
  15     0.082110477331335
  16     -0.58351974251788
  17     -0.94674622308318
  18       0.2606591900091
  19    -0.028805402552922
  20     -0.28282985781313
  21       0.6794021637472
  22     0.069936495060058
  23     -0.24046074678047
  24     0.061867062632139
  25      0.14485863385041
  26     -0.85834607120092
  27     -0.19376037882313
  28     -0.59174221809606
  29     -0.77259549252463
  30     -0.37727129803879
  31     -0.43792633184541
  32     -0.10060084582248
  33     -0.83406137314984
  34     -0.09942534624623
  35      0.45995400094848
  36     0.016600879857265
  37      0.51900289633011
  38     -0.28233318765843
  39     -0.16951579081464
 Sym= A
 Ene=      1.88956829
 Spin= Alpha
 Occup=    0.00000
   1    -0.0050253943124531
   2      0.20362926927939
   3     -0.32495374059595
   4    -0.0055350428588591
   5     0.045367283733277
   6      0.11929180832242
   7     0.045354691747987
   8       -0.169949391242
   9     -0.19688406884652
  10     0.016497463684631
  11      0.16530871625708
  12     -0.24454888842427
  13    -0.044517300376422
  14    -0.064365906577724
  15       0.2847666215386
  16     0.024891597466043
  17    -0.093636506411292
  18     -0.04200056585361
  19     0.019178324384928
  20      0.19036068718623
  21     -0.31439825282119
  22     0.055370812284806
  23    -0.054172150650828
  24      0.28572190474935
  25     -0.17726348076943
  26     -0.08852978110074
  27     -0.30792854840529
  28       0.4579402507741
  29     -0.37028570871779
  30      -0.3724820620371
  31      0.24667745119622
  32      0.18995095444775
  33    -0.026054606388721
  34     -0.60123346887026
  35        0.483814140082
  36        0.715870888274
  37     -0.24293916638462
  38     0.063019770548351
  39      0.32375207293467
 Sym= A
 Ene=     1.945314645
 Spin= Alpha
 Occup=    0.00000
   1    6.7379460587027e-05
   2    -0.067504246073214
   3      0.12437946109371
   4     0.070894429561985
   5     -0.10605459607846