[Molden Format]
made by pyscf v[1.7.5.1]
[Atoms] (AU)
GHOST-O   1   0    -2.21324723709060     0.56635091953215     0.00000000000000
C   2   6    -0.08749431956736    -1.07052984956611     0.00000000000000
C   3   6     2.30074155665796     0.50417893003396     0.00000000000000
H   4   1    -0.18103576273333    -2.29034806297285     1.66654946925393
H   5   1    -0.17990192705859    -2.25595504750577    -1.69054899103590
H   6   1     3.97787349220946    -0.70297811833820    -0.03344815240480
H   7   1     2.34817368238455     1.75876810413270    -1.64481761882143
H   8   1     2.38407847875128     1.71058008795629     1.67921063428851
GHOST-H   9   0    -2.13368976724641     1.58056693058622     1.53048918828524
[GTO]
1 0
 s    6 1.00
             5484.6717   0.001831099805527
             825.23495   0.013950098518422
             188.04696    0.06844509273075
               52.9645    0.23271427528445
              16.89757    0.47019295006289
             5.7996353    0.35852086192309
 s    3 1.00
             15.539616   -0.11077750382508
             3.5999336   -0.14802630511126
             1.0137618     1.1307670390447
 s    1 1.00
             0.2700058                   1
 p    3 1.00
             15.539616   0.070874299543311
             3.5999336    0.33975279781076
             1.0137618    0.72715859531445
 p    1 1.00
             0.2700058                   1

2 0
 s    6 1.00
             3047.5249  0.0018347001629433
             457.36951    0.01403730124668
             103.94869   0.068842606114048
             29.210155    0.23218442062076
              9.286663    0.46794134155879
              3.163927    0.36231203217765
 s    3 1.00
             7.8682724   -0.11933240861517
             1.8812885   -0.16085421161283
             0.5442493     1.1434564825515
 s    1 1.00
             0.1687144                   1
 p    3 1.00
             7.8682724   0.068999095584993
             1.8812885    0.31642397975315
             0.5442493    0.74430825237435
 p    1 1.00
             0.1687144                   1

3 0
 s    6 1.00
             3047.5249  0.0018347001629433
             457.36951    0.01403730124668
             103.94869   0.068842606114048
             29.210155    0.23218442062076
              9.286663    0.46794134155879
              3.163927    0.36231203217765
 s    3 1.00
             7.8682724   -0.11933240861517
             1.8812885   -0.16085421161283
             0.5442493     1.1434564825515
 s    1 1.00
             0.1687144                   1
 p    3 1.00
             7.8682724   0.068999095584993
             1.8812885    0.31642397975315
             0.5442493    0.74430825237435
 p    1 1.00
             0.1687144                   1

4 0
 s    3 1.00
             18.731137    0.03349459952309
             2.8253937    0.23472694665786
             0.6401217    0.81375731841339
 s    1 1.00
             0.1612778                   1

5 0
 s    3 1.00
             18.731137    0.03349459952309
             2.8253937    0.23472694665786
             0.6401217    0.81375731841339
 s    1 1.00
             0.1612778                   1

6 0
 s    3 1.00
             18.731137    0.03349459952309
             2.8253937    0.23472694665786
             0.6401217    0.81375731841339
 s    1 1.00
             0.1612778                   1

7 0
 s    3 1.00
             18.731137    0.03349459952309
             2.8253937    0.23472694665786
             0.6401217    0.81375731841339
 s    1 1.00
             0.1612778                   1

8 0
 s    3 1.00
             18.731137    0.03349459952309
             2.8253937    0.23472694665786
             0.6401217    0.81375731841339
 s    1 1.00
             0.1612778                   1

9 0
 s    3 1.00
             18.731137    0.03349459952309
             2.8253937    0.23472694665786
             0.6401217    0.81375731841339
 s    1 1.00
             0.1612778                   1

[5d]
[7f]
[9g]

[MO]
 Sym= A
 Ene=    -10.26259848
 Spin= Alpha
 Occup=    2.00000
   1    -1.4978366077168e-05
   2    -0.00045632916036351
   3    0.0027591164004271
   4    -0.00027155426945702
   5    0.0002277122576914
   6    4.5587728643531e-05
   7    0.0011243169666839
   8    -0.00076778251964853
   9    -0.0002869363768617
  10      0.99590360267749
  11     0.032801181669272
  12    -0.030175775474221
  13     0.003745866327672
  14    -0.0029562148441494
  15    2.065757546341e-05
  16    -0.0042143293716208
  17    0.00058881373427175
  18    5.0089441659449e-05
  19    0.0015646523823352
  20    -0.0012142172396628
  21    0.0086200905873822
  22    0.00042536806900291
  23    0.0003579158545089
  24    -3.3615639014427e-06
  25    -0.003930900151051
  26    -0.0028900015814969
  27    2.4557605753006e-05
  28    -0.00040971117874025
  29     0.005808668285802
  30    -0.0003807819859319
  31    0.0058226833554907
  32    -0.00031474391631968
  33    0.00046928286981155
  34    -0.0003070043490792
  35    0.0003265290566197
  36    -0.00028117083378105
  37    0.00020618781263933
  38    7.1984925854486e-05
  39    0.00057722816132114
 Sym= A
 Ene=    -10.20262436
 Spin= Alpha
 Occup=    2.00000
   1    -3.4590053639939e-05
   2    -0.00044030604397874
   3    0.00065779869773061
   4    -0.00011310347951499
   5    -7.2289994194154e-06
   6    -1.8854299290101e-05
   7    0.00037799154074199
   8    0.00011900022719164
   9    0.00021674263680283
  10    -0.0016140648062579
  11    -0.0011895930127076
  12    0.0073662979559998
  13    -0.0003655109778881
  14    -0.00037391706228339
  15    -3.5488736030353e-06
  16    0.0034738066073905
  17    0.0022701721404695
  18    -9.969327687984e-05
  19      0.99537052050429
  20     0.036370448883942
  21    -0.031932170612386
  22    0.00013846809979018
  23    -2.6625392412605e-05
  24    -5.785487316496e-06
  25    0.0013852785085393
  26    0.0006736867296323
  27    4.4893335336679e-05
  28    -0.00022737149635043
  29    0.00034213921168677
  30    -0.00025778117686469
  31    0.00029067871685132
  32    -0.00051262295350094
  33    0.0054606591753869
  34    -0.00042227362740554
  35    0.0056013246640256
  36    -0.00043836710582101
  37    0.0055857206979862
  38    -0.00029165049076725
  39    -7.275477219405e-05
 Sym= A
 Ene=   -0.7599568403
 Spin= Alpha
 Occup=    2.00000
   1    0.00057637459747903
   2    0.0058145701250493
   3    -0.037218290652878
   4    -0.00020080010929075
   5    0.00031820631181944
   6    0.00010228392397778
   7    -0.019310129943175
   8    0.0094323566712074
   9    -0.0016071886629987
  10      -0.1231951134339
  11      0.22697925501561
  12      0.21741702907191
  13      0.14278850631645
  14    -0.028711049978907
  15    -0.00041692442679899
  16     0.018505095964774
  17    -0.013501505708148
  18    0.00085375576464016
  19     -0.16766493654862
  20      0.31355804310335
  21      0.30262155927222
  22    -0.035732840856028
  23    -0.044860876424782
  24    -0.00018270009294436
  25    -0.00025383091497697
  26    -0.014624881228439
  27    -0.00067606223288015
  28     0.079104819152927
  29     0.010388997794702
  30     0.079372126949209
  31     0.011079762455526
  32      0.10423159138539
  33     0.015448908362949
  34     0.092760753128819
  35     0.014928027507531
  36      0.09283150885212
  37     0.015264102792875
  38    0.0023075732952588
  39    0.00044381296287055
 Sym= A
 Ene=   -0.5999066936
 Spin= Alpha
 Occup=    2.00000
   1    0.00044425020414726
   2    0.0043465086152096
   3    -0.036020974623767
   4    -0.0003665902728717
   5    0.00013927472196097
   6    -9.1457972225437e-05
   7    -0.015811711054971
   8     0.019996571743334
   9    0.00097761609969841
  10     -0.13630119119189
  11      0.25274409764123
  12      0.34154032645237
  13     0.049414925728884
  14     -0.18654799453086
  15    -0.00051365162783975
  16     0.029720560350092
  17    -0.046793226756265
  18    4.3238777019966e-05
  19      0.10778901399535
  20     -0.20499591634173
  21      -0.2800241522018
  22     -0.11530446016795
  23     -0.11252073656045
  24    -0.00014638870619964
  25    -0.031100522890664
  26    -0.019553341488288
  27    -0.00031573760613279
  28      0.15746548210021
  29     0.061326069844376
  30      0.15615263881535
  31     0.060637532365745
  32    -0.098696198575915
  33    -0.030511239204676
  34     -0.11440219217364
  35    -0.045422192129723
  36     -0.11420155969392
  37    -0.044487009681461
  38    0.00031870323809372
  39    -0.0034071582490974
 Sym= A
 Ene=   -0.4376961659
 Spin= Alpha
 Occup=    2.00000
   1    0.00017071810451867
   2    0.0018783789752872
   3    -0.0070849524723942
   4    -1.0546744998644e-05
   5    0.00036333577096431
   6    0.00080230599863234
   7    0.00095258488041781
   8    -0.0053819668182648
   9    -0.023856383205947
  10    1.5845719430946e-05
  11    0.0007968118945601
  12    -0.0018385511860552
  13    -0.0011859538409902
  14    -0.002163564700063
  15      0.30120413035525
  16    0.0029312777495186
  17    -0.0022574146869786
  18     0.096015548016856
  19    -0.00011994212658805
  20    -5.2994833347906e-05
  21    0.0012473526950712
  22    0.0021132287636619
  23    0.0001195936704341
  24      0.33068311664418
  25    0.0014457007509261
  26    0.0012381047239296
  27      0.19152096125961
  28      0.16188314507211
  29      0.13483673861137
  30     -0.16151118050049
  31      -0.1353342766015
  32    -0.0022344397189847
  33    -0.0017905721863685
  34     -0.15712610532126
  35    -0.095620084403267
  36      0.16082089161545
  37     0.095572241152909
  38    0.0046742283956869
  39     0.011844970965921
 Sym= A
 Ene=   -0.4080529822
 Spin= Alpha
 Occup=    2.00000
   1    -0.000822590840645
   2    -0.0081829624490856
   3     0.062277612028026
   4    0.00073892475381831
   5    -0.00051523756450631
   6    -0.00017227786138076
   7     0.031222345509388
   8    -0.015169432423755
   9    0.0026311254869512
  10     0.025159670013349
  11    -0.039089436377296
  12    -0.088266868872831
  13    -0.040715842453028
  14    -0.086943271572706
  15    -0.00021172592627612
  16     0.024945805302667
  17    -0.056908720240854
  18    -0.0015052421626446
  19    0.0040890635386352
  20    -0.011293183881404
  21     -0.01677817304415
  22      0.32763768494212
  23     -0.30021108637885
  24    -0.0019984723886189
  25      0.14314621087289
  26     -0.13861059180098
  27    -0.00017757835165661
  28    0.0074351681936133
  29     0.010331920634055
  30    0.0066241196887454
  31    0.0090452879094499
  32       0.2938402960882
  33      0.24456791779121
  34     -0.11622367140775
  35    -0.089109169825968
  36     -0.11024254024053
  37    -0.084821777973297
  38    -0.0030824834263247
  39    -0.0019001124747146
 Sym= A
 Ene=   -0.3636064166
 Spin= Alpha
 Occup=    2.00000
   1    3.6056177708852e-05
   2    0.00025208178201099
   3    -0.004070774556913
   4    -0.00023507089045487
   5    -0.00041163578969496
   6    -0.00026354583951626
   7    0.0069848538786144
   8     0.023881895836123
   9    0.0036252117881131
  10    0.0088593448661679
  11    -0.029727495723482
  12      0.01755242514572
  13     -0.26038247715457
  14     -0.29360932919811
  15    0.0032867871315793
  16    -0.085434566164198
  17     -0.10831992861668
  18    -0.00028114103343615
  19     0.020049258283327
  20    -0.040785102597724
  21     -0.10188463381255
  22      0.27878248183469
  23      0.30769657141859
  24    -0.0070506486987483
  25      0.14237965685627
  26      0.18966990948154
  27    -0.0029923922134415
  28      0.13436024937755
  29      0.13228425790501
  30      0.12567418021226
  31      0.12332461523657
  32     0.010094112211945
  33     0.030592814963008
  34      0.11658860141577
  35      0.09753855949898
  36      0.10663064334823
  37     0.089843594479391
  38    -0.0027212453133354
  39    -0.0061958488982886
 Sym= A
 Ene=   -0.3391585857
 Spin= Alpha
 Occup=    2.00000
   1    0.00014959000540938
   2    0.0016403247423584
   3    -0.0059930256281807
   4    7.7936331180337e-06
   5    0.00030798386629518
   6    0.00076059943091966
   7    0.00045787213483272
   8    -0.0053233293123078
   9    -0.024223555966907
  10    -4.7750979476349e-05
  11    0.00097190698283792
  12    -0.0021401449310513
  13    0.0048076477733961
  14    0.0047891926073737
  15      0.31515846385614
  16    0.0045496658135097
  17    0.0009459931796996
  18      0.11993777749313
  19    -0.00061694154465265
  20    0.0010233056064407
  21    0.0034042905136964
  22    -0.0064481640968407
  23    -0.0048810855961834
  24     -0.30497343583238
  25    -0.0033370627357631
  26    -0.0020543039171557
  27     -0.14210061407034
  28       0.2104824701734
  29      0.21302479496445
  30     -0.21655011369026
  31     -0.21974057320377
  32    0.0028347758529852
  33    0.0022242825511807
  34      0.18293258363524
  35      0.17464739924992
  36     -0.18974012412469
  37     -0.18311022259848
  38    0.0051923823877674
  39    0.0093579512852745
 Sym= A
 Ene=   0.07052504168
 Spin= Alpha
 Occup=    0.00000
   1    -0.0048338162807046
   2    -0.047476298737643
   3      0.54975516082822
   4    0.0020018154751628
   5    -0.0047180279496287
   6    -0.0039620917706722
   7      0.24968254908086
   8     -0.14092077859846
   9      0.06400816831967
  10    0.0075897190034776
  11     0.062685538311621
  12        0.307914219206
  13       0.2349416853044
  14     -0.22990093930972
  15    -0.0028443284610398
  16      0.83714942920399
  17     -0.68867097424667
  18    -0.018575310937083
  19    -0.020918811801465
  20     0.050000341128896
  21      0.17310632765172
  22      0.07672435691006
  23    0.0082841641714719
  24    0.0073699606581284
  25      0.36464477362657
  26       0.1158403968808
  27      0.02606318626826
  28    -0.0092278750401034
  29     -0.43872619292261
  30    -0.019075154562907
  31     -0.45952845793417
  32     -0.12448741273348
  33     -0.65874340928724
  34     0.056822207769162
  35    0.00093000073649694
  36     0.051239927546899
  37    -0.042206344418916
  38    -0.0023727536432121
  39     -0.24604545844691
 Sym= A
 Ene=    0.1094334329
 Spin= Alpha
 Occup=    0.00000
   1    0.0029594702308704
   2      0.02946678533546
   3     -0.30862071525482
   4    -0.00048079825155709
   5    0.00021821766259772
   6    -0.0012959907230319
   7     -0.14662837990335
   8      0.15570706424489
   9     0.021372303615347
  10    -0.079299444146216
  11     0.060750812861463
  12       1.0795052198951
  13     -0.09908112156056
  14    -0.050732624541257
  15    0.0021438335344198
  16     -0.59127057706758
  17    -0.083509321119132
  18    0.00028964756547026
  19     -0.11231812080415
  20      0.12507636659871
  21       1.9300954934165
  22      0.12495917129092
  23     0.075875120969433
  24    0.0064685841484456
  25      0.32081984708049
  26      0.34622626427529
  27     0.020778033121934
  28    -0.00090004731277513
  29     -0.57341541301101
  30    -0.0032012845582989
  31     -0.56410838347987
  32     0.033382991906146
  33     -0.72335257846666
  34    -0.051626393131609
  35      -0.9797185330941
  36    -0.053027557721006
  37      -1.0130827730458
  38     0.010102001976942
  39     -0.11669222467993
 Sym= A
 Ene=     0.153539428
 Spin= Alpha
 Occup=    0.00000
   1    0.0012607273571603
   2     0.012257713240508
   3      -0.1515099104041
   4    -0.0022806827537192
   5    0.00054879014883421
   6    0.0011716155704478
   7     -0.06789121914261
   8     0.063005785437207
   9    -0.022288544057912
  10      -0.1317517424001
  11      0.10698413703465
  12       2.2509744417029
  13     0.039481732486031
  14     -0.14958271433848
  15    -0.019951511368111
  16       0.1791548375625
  17      -0.3499260289426
  18    -0.025099009026762
  19     0.095810842058379
  20     -0.09006471552914
  21      -1.6465462267026
  22    -0.057352498466388
  23     0.054726767957083
  24    -0.052569076003727
  25    -0.063151011936278
  26      0.49620045911471
  27     -0.17393888147877
  28    -0.042339077027719
  29      -1.1166956266454
  30    -0.050207382367723
  31      -1.2275671635464
  32     0.062170747255973
  33       1.0618129190592
  34    -0.023555241652017
  35      0.12571088146919
  36    0.0050610751183305
  37      0.53036195755863
  38    -0.0022222193691728
  39       0.1279167332458
 Sym= A
 Ene=    0.1546745279
 Spin= Alpha
 Occup=    0.00000
   1    -0.00026589108381163
   2    -0.0031915568273697
   3     0.022752343599938
   4    -0.00012897606509887
   5    -0.0012790176135987
   6    0.0015138056005494
   7    -0.016061550493907
   8     0.032952630989737
   9    -0.026548784835266
  10     -0.01659841574228
  11    0.0087750665168788
  12      0.27189199567727
  13    0.00020189315486758
  14    -0.0066509297584206
  15      0.19346596254549
  16    0.0088950005395074
  17    -0.021237835824077
  18       0.4004490662482
  19      0.01676508166233
  20    -0.014844517226199
  21     -0.29870155405151
  22    -0.037682618005937
  23     0.033191566360094
  24       0.3437643787991
  25    -0.087160746357093
  26      0.13768451737951
  27       1.0948766175941
  28    -0.059356652540508
  29     -0.77098673972972
  30      0.05012806170858
  31      0.54872989454909
  32     0.017612451199176
  33      0.35422765080779
  34     0.099020823344027
  35       1.3048965533476
  36     -0.10633267733623
  37      -1.3008744664641
  38     0.012921089021324
  39     -0.14310515525079
 Sym= A
 Ene=     0.170191332
 Spin= Alpha
 Occup=    0.00000
   1    -0.0033173735055656
   2    -0.033888944916915
   3      0.41137570940474
   4    -0.0010540417503036
   5    -0.0013947514158958
   6    -0.0026920567010555
   7      0.16980952878445
   8    -0.095925663597263
   9     0.050879566528236
  10     0.044739326693209
  11    -0.0025553432621184
  12     -0.74055000294605
  13     0.033261896298815
  14     0.040452912840998
  15    -0.034852079520117
  16       0.4188051448194
  17     -0.44277456246841
  18     -0.11231215417521
  19    -0.020872792643055
  20     0.027864932243612
  21      0.33264553852119
  22     -0.22856956842263
  23      0.33056032372596
  24    -0.024126256267611
  25     -0.81672182190674
  26       1.1311803883045
  27    -0.059697426405949
  28     0.023948195696978
  29      0.36473908876779
  30    -0.0011477104487038
  31     0.091799316588823
  32     0.059544856530625
  33       1.5458758911264
  34    -0.041918732624573
  35      -1.0663448452562
  36    -0.018710830234715
  37     -0.82105052990069
  38    0.0031381064776624
  39     -0.19101332184864
 Sym= A
 Ene=    0.2016705505
 Spin= Alpha
 Occup=    0.00000
   1    6.8249256809323e-05
   2    0.0014289991669419
   3     0.029310171427723
   4    -4.5901654841577e-05
   5    0.0019969271256061
   6    0.0035985784216964
   7     0.050616498100729
   8    -0.073385405151063
   9     -0.14104687294361
  10     0.011523833795561
  11    0.0045755938719362
  12     -0.17465019180191
  13      0.01781764123434
  14    -0.011431031767487
  15      0.38464696730337
  16      0.14790921039371
  17     -0.14248151172429
  18       1.4430486076932
  19    -0.0094980475159069
  20    0.0063438889104597
  21      0.18593897588673
  22     0.011210895966693
  23     0.028318677858485
  24     -0.15535442960807
  25    -0.048440654143472
  26      0.12721044492344
  27      -0.9392348383266
  28    -0.032098736327213
  29       -1.431973166208
  30     0.030456344901548
  31       1.4667023691236
  32    -0.0012469558949668
  33    0.0042526271481134
  34    -0.026880248963836
  35     -0.87954574202099
  36     0.018949609752497
  37      0.59879919899601
  38    0.0041021592477043
  39      0.23463856300606
 Sym= A
 Ene=    0.2584970712
 Spin= Alpha
 Occup=    0.00000
   1    0.0026955820577401
   2     0.027524926678007
   3     -0.26614930229556
   4    0.00043441819385447
   5    0.0016933932296075
   6    -0.0007411474332927
   7     -0.20058955683321
   8    0.0063925442033845
   9     0.017730237181304
  10     -0.07806761666859
  11     0.035470564561891
  12       1.5809064411235
  13       0.2766931912674
  14      0.28006292492545
  15     0.012231184861303
  16       1.0344499398151
  17       1.5694348740148
  18     0.026882864671101
  19     0.069166322017793
  20    -0.031951830325272
  21      -1.5020002532593
  22      0.18034394770455
  23      0.16923434648215
  24    -0.0079562549372259
  25       1.6819608283863
  26      0.84348762672919
  27     -0.04380458085596
  28     0.064295763458753
  29      0.51613964125011
  30     0.052742888154502
  31      0.54491739650966
  32    -0.058426647164466
  33      -0.2713341988416
  34     -0.07938056976632
  35     -0.25177646183098
  36    -0.068097527458704
  37     -0.16092503281612
  38     0.023169264523238
  39     -0.18615941452208
 Sym= A
 Ene=    0.2757039657
 Spin= Alpha
 Occup=    0.00000
   1    -0.0025635566828814
   2    -0.025375723181843
   3      0.16124579465911
   4    0.0017220823194305
   5    0.0032006987913679
   6    0.0078523656081629
   7      0.14477647044131
   8     -0.23723306061058
   9     -0.17656873819989
  10     0.029331137362506
  11    0.00085469240517242
  12     -0.28596003929805
  13      0.11858471464499
  14    -0.050846717080061
  15     -0.12387063084411
  16      0.75887738588376
  17     -0.45820535961343
  18     -0.22184777316233
  19     -0.01861175616371
  20    -0.0044318936023196
  21       0.4182623187485
  22      0.16440227463136
  23     0.069081064860319
  24     0.069387309863435
  25      0.02839332077444
  26      0.49676024775448
  27      0.35664564413301
  28    -0.082863886543093
  29      0.19154261918917
  30     0.039169336965952
  31     -0.28329130149892
  32    0.0033231263604621
  33     -0.10433782770134
  34    0.0078866271267798
  35    -0.073992614903817
  36    -0.081237871097246
  37     -0.82709051886605
  38    -0.070611122786252
  39       1.3596612812042
 Sym= A
 Ene=    0.5358264523
 Spin= Alpha
 Occup=    0.00000
   1    -0.012640415624599
   2      -0.1352605396242
   3      0.91190050048637
   4    0.0068584390848749
   5    -0.013510973474334
   6     0.023549371669894
   7     -0.06653769518323
   8      0.18387275171142
   9     -0.27821697914323
  10    0.0043677372945904
  11    -0.077422422990957
  12     -0.12170391825671
  13     0.014960219787804
  14    -0.036545702297928
  15       0.3021225212084
  16      0.28337737524632
  17     -0.23403560870191
  18     -0.43045263840781
  19    0.0030387145839637
  20    -0.089243781430715
  21     0.051864514340092
  22      0.28404401369914
  23     0.081402831786723
  24      0.27184046362342
  25      -0.4237138735404
  26     0.034071774199875
  27     -0.57218540741106
  28      0.22505508569127
  29    -0.039149139836792
  30     -0.33243085842679
  31    -0.044660754097945
  32     0.010725498841864
  33     0.095045604991978
  34     -0.23809817837709
  35      -0.1553476995408
  36      0.26158349090985
  37     0.092022751847627
  38    0.0090825246467469
  39     -0.26921271900906
 Sym= A
 Ene=    0.5406887565
 Spin= Alpha
 Occup=    0.00000
   1    -0.0051983603718859
   2    -0.055027732700894
   3      0.26955122503807
   4     0.028418438855094
   5    0.0082729816739958
   6    0.00057410905519259
   7     -0.38791803304977
   8    -0.060446771579466
   9    -0.0052000600700181
  10     0.023173481108607
  11    -0.059747693730139
  12      0.53750082452491
  13      0.38184936895387
  14       0.2326705048369
  15     0.017450390345386
  16     -0.41015373212463
  17     -0.49172004481518
  18    -0.028124224792676
  19    -0.0042493909860163
  20     0.074979013688739
  21      0.25982536920778
  22      -0.5358113818705
  23     -0.18595570793589
  24     0.014690449235105
  25      0.77586023562494
  26      0.30259506176362
  27    -0.027387355876403
  28      -0.1724051958791
  29     -0.05963543601905
  30     -0.19933234408358
  31    -0.057165130223501
  32     -0.26652007254634
  33     0.018702805359541
  34    -0.017937190857529
  35    -0.096923250679072
  36    0.0041294874914335
  37    -0.088895745502361
  38    -0.0054436955132795
  39    -0.0030959397217135
 Sym= A
 Ene=    0.5725257989
 Spin= Alpha
 Occup=    0.00000
   1    0.00020491446465871
   2     0.002477844433621
   3     0.082481422074328
   4     -0.02141718135773
   5    -0.014138040383729
   6    6.3249459450166e-05
   7      0.44022948454946
   8      0.18043994598171
   9    -0.0013225518355612
  10     0.020559695631403
  11     0.023057965976633
  12    -0.070491726660767
  13      0.15530695080165
  14        0.302425190522
  15     0.033212010551945
  16     -0.14190561753601
  17      -1.0718909809729
  18     -0.04873712911617
  19    -0.0048002401835645
  20     0.033886447957846
  21      0.52770754208932
  22     0.020721003566269
  23      -0.7398108491701
  24      0.13091337395901
  25     -0.45079050832097
  26        1.429396644155
  27     -0.25169886813965
  28     0.052136827877477
  29     -0.15659586861832
  30    -0.052073514994952
  31      -0.1511797004294
  32      0.28126692442714
  33      0.26138125074528
  34     -0.31248616781836
  35     -0.27505738469023
  36     -0.15371055015009
  37     -0.18573001106538
  38    -0.026500832665842
  39     0.069272603506325
 Sym= A
 Ene=    0.5941155888
 Spin= Alpha
 Occup=    0.00000
   1    -0.010212044853183
   2     -0.10947114318402
   3      0.83094653859982
   4    -0.0027904394117567
   5    -0.007685053028159
   6     0.015082932122269
   7     0.092205550793459
   8      0.12819220621178
   9      -0.1635708890826
  10    -0.0038373851557412
  11     -0.04116657507543
  12     -0.12022140382294
  13     0.047621843033923
  14      0.16218059128322
  15      0.11120888773924
  16      0.13666200911283
  17     -0.59483584444519
  18     -0.32586454503722
  19    0.0070812331655902
  20     -0.10014196016768
  21       0.2156301897775
  22      0.24304334596489
  23    -0.093211602898642
  24     -0.73154780021899
  25     -0.48178796734431
  26      0.31428116796009
  27       1.4835884307162
  28     -0.16683421697475
  29    -0.028718907032114
  30    0.0062519601015157
  31     -0.15937572419558
  32     0.058301926409411
  33      0.16708053027753
  34      0.28076672860628
  35      0.21575401924692
  36     -0.34481696905018
  37     -0.31973667849264
  38      0.01869727131526
  39     -0.37229249758646
 Sym= A
 Ene=    0.6532464382
 Spin= Alpha
 Occup=    0.00000
   1    0.0086975047154171
   2     0.094812694784745
   3     -0.85622649828975
   4     0.018639237893708
   5    -0.021786049391501
   6     0.018772006018878
   7     -0.40133263285586
   8      0.30686946426187
   9     -0.26633203374297
  10     0.062404845609487
  11     -0.10632612717431
  12      0.48223356738708
  13    -0.054739659653505
  14     -0.63321026644687
  15      0.18731940875966
  16    -0.028478241796177
  17       1.4298657176824
  18     -0.45364864555227
  19    -0.030210083746158
  20      0.29608239608208
  21     -0.61820705670186
  22     -0.48488873427175
  23     -0.20477257864664
  24     -0.20838079863934
  25        0.834691572274
  26      0.21878462277349
  27      0.52657461192225
  28      0.36263579507565
  29      0.37080615834924
  30      0.18635167379594
  31      0.19614547247942
  32      0.07851163896986
  33     -0.14952751732106
  34     -0.03154248606085
  35     0.097316726890256
  36     -0.11773436997191
  37     -0.21667508822239
  38    0.0098935670241744
  39      0.17314115856276
 Sym= A
 Ene=    0.7169579586
 Spin= Alpha
 Occup=    0.00000
   1    -0.008819926829999
   2    -0.096626183190115
   3      0.89871673746709
   4    -0.017907506669382
   5    0.0054592044918748
   6    -0.0051624492099864
   7       0.2020130782082
   8     -0.11628202658335
   9      0.08000698240492
  10    -0.00039216366657855
  11     -0.44412867729832
  12       1.2141836228761
  13     -0.91515637371781
  14    -0.0049274823406938
  15    -0.069234269068656
  16       1.6308011192498
  17     0.054352556113636
  18      0.18398012005748
  19    -0.045356366793248
  20     0.089406252744491
  21     -0.49095859884704
  22     -0.39605562957807
  23     -0.29975650583165
  24     0.041814912798477
  25       1.0280430932859
  26      0.77067233336245
  27     -0.14008955300739
  28    -0.048447604442374
  29     -0.13498434235179
  30     0.019926833227882
  31    -0.042469119022295
  32     -0.29397124795933
  33     -0.19575745236545
  34     -0.09998082700355
  35     -0.30014348997874
  36    -0.097003069355492
  37     -0.18811972015446
  38    0.0050310101679024
  39     -0.13243606555796
 Sym= A
 Ene=    0.7842577847
 Spin= Alpha
 Occup=    0.00000
   1    -0.0097366676233291
   2      -0.1017037745256
   3      0.86860675791682
   4     0.023031857346608
   5    -0.0080068727319263
   6    -0.011988463355707
   7     -0.44572696424027
   8      0.19775231686524
   9      0.17022094081123
  10     0.034450632011969
  11    -0.033129836087769
  12      -0.1283739867394
  13      0.10090690322321
  14     -0.25005680997402
  15     -0.60321570311236
  16      0.21052167925438
  17      0.56924244897905
  18        1.745874409365
  19     0.014621658725673
  20     0.015941597227482
  21     -0.49832494852048
  22      0.15933457409599
  23      -0.2375451166673
  24      0.24397412583891
  25     -0.46120481434044
  26      0.55775515308755
  27     -0.98713725610343
  28    -0.012985009822786
  29     -0.39577387497989
  30      0.38969794587138
  31      0.78678385366092
  32      0.27842656157465
  33      0.33121044993611
  34     0.095622315784185
  35     -0.54597588310644
  36    0.0022409446862463
  37      0.39835014680339
  38     0.025426900351627
  39      -1.0183142534481
 Sym= A
 Ene=    0.8501399554
 Spin= Alpha
 Occup=    0.00000
   1    0.0043053323242275
   2     0.045376421359514