[Molden Format]
made by pyscf v[1.7.5.1]
[Atoms] (AU)
GHOST-O   1   0    -2.21324723709060     0.56635091953215     0.00000000000000
C   2   6    -0.08749431956736    -1.07052984956611     0.00000000000000
C   3   6     2.30074155665796     0.50417893003396     0.00000000000000
H   4   1    -0.18103576273333    -2.29034806297285     1.66654946925393
H   5   1    -0.17990192705859    -2.25595504750577    -1.69054899103590
H   6   1     3.97787349220946    -0.70297811833820    -0.03344815240480
H   7   1     2.34817368238455     1.75876810413270    -1.64481761882143
H   8   1     2.38407847875128     1.71058008795629     1.67921063428851
GHOST-H   9   0    -2.13368976724641     1.58056693058622     1.53048918828524
[GTO]
1 0
 s    6 1.00
             5484.6717   0.001831099805527
             825.23495   0.013950098518422
             188.04696    0.06844509273075
               52.9645    0.23271427528445
              16.89757    0.47019295006289
             5.7996353    0.35852086192309
 s    3 1.00
             15.539616   -0.11077750382508
             3.5999336   -0.14802630511126
             1.0137618     1.1307670390447
 s    1 1.00
             0.2700058                   1
 p    3 1.00
             15.539616   0.070874299543311
             3.5999336    0.33975279781076
             1.0137618    0.72715859531445
 p    1 1.00
             0.2700058                   1

2 0
 s    6 1.00
             3047.5249  0.0018347001629433
             457.36951    0.01403730124668
             103.94869   0.068842606114048
             29.210155    0.23218442062076
              9.286663    0.46794134155879
              3.163927    0.36231203217765
 s    3 1.00
             7.8682724   -0.11933240861517
             1.8812885   -0.16085421161283
             0.5442493     1.1434564825515
 s    1 1.00
             0.1687144                   1
 p    3 1.00
             7.8682724   0.068999095584993
             1.8812885    0.31642397975315
             0.5442493    0.74430825237435
 p    1 1.00
             0.1687144                   1

3 0
 s    6 1.00
             3047.5249  0.0018347001629433
             457.36951    0.01403730124668
             103.94869   0.068842606114048
             29.210155    0.23218442062076
              9.286663    0.46794134155879
              3.163927    0.36231203217765
 s    3 1.00
             7.8682724   -0.11933240861517
             1.8812885   -0.16085421161283
             0.5442493     1.1434564825515
 s    1 1.00
             0.1687144                   1
 p    3 1.00
             7.8682724   0.068999095584993
             1.8812885    0.31642397975315
             0.5442493    0.74430825237435
 p    1 1.00
             0.1687144                   1

4 0
 s    3 1.00
             18.731137    0.03349459952309
             2.8253937    0.23472694665786
             0.6401217    0.81375731841339
 s    1 1.00
             0.1612778                   1

5 0
 s    3 1.00
             18.731137    0.03349459952309
             2.8253937    0.23472694665786
             0.6401217    0.81375731841339
 s    1 1.00
             0.1612778                   1

6 0
 s    3 1.00
             18.731137    0.03349459952309
             2.8253937    0.23472694665786
             0.6401217    0.81375731841339
 s    1 1.00
             0.1612778                   1

7 0
 s    3 1.00
             18.731137    0.03349459952309
             2.8253937    0.23472694665786
             0.6401217    0.81375731841339
 s    1 1.00
             0.1612778                   1

8 0
 s    3 1.00
             18.731137    0.03349459952309
             2.8253937    0.23472694665786
             0.6401217    0.81375731841339
 s    1 1.00
             0.1612778                   1

9 0
 s    3 1.00
             18.731137    0.03349459952309
             2.8253937    0.23472694665786
             0.6401217    0.81375731841339
 s    1 1.00
             0.1612778                   1

[5d]
[7f]
[9g]

[MO]
 Sym= A
 Ene=    -10.29155895
 Spin= Alpha
 Occup=    2.00000
   1    0.0012174439520073
   2    -0.0057815871545022
   3    -0.0014801861395522
   4    -0.023152337050033
   5     0.016054022669556
   6    -0.00048153683799804
   7    -0.013903656484267
   8    0.0080329299942019
   9    -0.0025058558867918
  10       0.9906171561352
  11     0.029151017925289
  12    -0.034771530246865
  13     0.015540368805095
  14     -0.01212282297344
  15    -0.0001354199785667
  16    -0.00017527161453363
  17    -0.0059190874817591
  18    -0.0024443756180995
  19     -0.11326794310227
  20    -0.0042537547706576
  21     0.016729902271073
  22    -0.004251271378543
  23    0.0016123860534702
  24    -2.4756229391726e-05
  25    -0.0080595870285652
  26    -0.0027494287824552
  27    0.0010595012549243
  28    0.0021686612764706
  29     0.009526771210555
  30    0.0016843897404345
  31    0.0064505680157261
  32    -0.0039386669972397
  33    -0.0045836184014918
  34    0.0012852512838774
  35    0.0017004313712135
  36    0.0012509930179076
  37    9.8513549154245e-05
  38    0.0046052629617645
  39    0.0051737074482643
 Sym= A
 Ene=    -10.21094081
 Spin= Alpha
 Occup=    2.00000
   1    -8.2462558219169e-05
   2    -0.00064358908214766
   3    0.00088476900491473
   4    0.0032696431174459
   5    0.0051337578811054
   6    -0.00090868800216609
   7    0.0033870039938164
   8    0.0035297309171257
   9    -0.0009041898944639
  10      0.11265027242159
  11    0.0026585704241434
  12    0.0034392189554961
  13    -0.00054815830555149
  14    -0.0011849601374911
  15    2.8396825438522e-06
  16    0.0038076404707173
  17    0.0017932671192007
  18    -0.0002602774255985
  19      0.98935113622558
  20     0.035098560873889
  21    -0.032679500040498
  22    0.0012942747028526
  23    0.00040925656944739
  24    3.7044226152617e-05
  25    0.0012164418684684
  26    0.0011480533635276
  27    0.00014879928607804
  28    0.00038693565488833
  29    0.0019449660646343
  30    9.366106022323e-05
  31    0.0013742889946102
  32    -0.00016786181349012
  33    0.0065451950933802
  34    -0.00064737239153206
  35    0.0058238961636608
  36    -0.00073244713343496
  37     0.005616756514146
  38    0.0010769534757949
  39    0.00076694747172782
 Sym= A
 Ene=   -0.7638618725
 Spin= Alpha
 Occup=    2.00000
   1    0.0018817695912564
   2    -0.014534157888716
   3    -0.049223508506806
   4     -0.02686001357139
   5    0.0042841825577501
   6    -0.0011501606855346
   7    -0.036537629327067
   8    0.0098858640236907
   9    -0.000337375441028
  10     -0.13051492623576
  11      0.24106997623145
  12      0.21226593798517
  13      0.14272782817446
  14    -0.023410992636132
  15    -0.0042598878511093
  16     0.036459301858275
  17     -0.02022526424731
  18    0.0025653243130082
  19     -0.16346377351649
  20      0.30982941213968
  21      0.29381120723815
  22    -0.052773266505742
  23    -0.039999106234168
  24    -0.0034932046888498
  25    -0.0086323708783456
  26    -0.0097744926754266
  27    -0.0025489158596999
  28      0.08374470587987
  29     0.016541065776388
  30     0.088634200044956
  31     0.022696949843384
  32     0.089172665704251
  33    0.0029500185701109
  34     0.095230865342144
  35     0.016163020747586
  36      0.09212493768808
  37     0.015677634256416
  38    -0.00075788945308408
  39    0.0079457985534419
 Sym= A
 Ene=   -0.6179536862
 Spin= Alpha
 Occup=    2.00000
   1    0.0018000348486564
   2     -0.01447132467755
   3     -0.05496628668807
   4    -0.010526712391465
   5     0.018380186978916
   6    -0.0035514695272598
   7    -0.018923224895954
   8     0.030997175816162
   9    -0.0036846346203993
  10     -0.13569409275351
  11      0.25738915902812
  12       0.3128352864033
  13     0.029476129613208
  14     -0.17710477758172
  15    -0.0087887738876973
  16     0.042591576547001
  17    -0.057593566220809
  18    -0.0046021882441379
  19      0.11183795209727
  20     -0.20993510988535
  21     -0.28622154698819
  22     -0.13988588496468
  23    -0.091915229802571
  24    0.0062498378105922
  25    -0.037065750515998
  26    -0.019602568424532
  27    0.0037717941612852
  28      0.15069759610534
  29     0.064287923522295
  30      0.15896064391824
  31     0.067302832561201
  32      -0.1238515921795
  33    -0.059967503591478
  34     -0.11033894013135
  35     -0.03481760583869
  36     -0.10374512217347
  37    -0.031064555203864
  38    0.0063967031318432
  39     0.015343125476016
 Sym= A
 Ene=   -0.4427538271
 Spin= Alpha
 Occup=    2.00000
   1    -0.00034734828554572
   2    0.0014719863351368
   3    0.0070801451063353
   4    -0.0044423077812236
   5    0.0026822062385736
   6    -0.015119071151825
   7    -0.0079254742831295
   8    0.0057487040527799
   9    -0.033911007291412
  10    -0.0026534658269772
  11    -0.00028319316220216
  12     0.014721724103083
  13     0.026543040762425
  14      0.02815685809615
  15      0.32884594531612
  16    0.0073019163974863
  17     0.028411571684788
  18      0.14560953673991
  19    -0.0019477222911804
  20    0.0042915295584165
  21    -0.0098907586892091
  22    -0.031697565514195
  23    -0.015488467011051
  24      0.32082116002639
  25     -0.01581024815995
  26    -0.011752893661105
  27      0.16183242762637
  28      0.14385599562197
  29      0.10215286053195
  30     -0.16518977240103
  31     -0.10731859245747
  32    -0.012556416883085
  33    -0.0083917925479071
  34     -0.15761036554772
  35     -0.10068026943109
  36      0.15291359366835
  37      0.10552329403043
  38     -0.01760940136247
  39    -0.022481603524326
 Sym= A
 Ene=     -0.43267787
 Spin= Alpha
 Occup=    2.00000
   1    0.0011295860232365
   2    -0.0083069386827032
   3    -0.039901883200173
   4    -0.019160675384154
   5    -0.00028143003690561
   6    -0.0036216212125617
   7    -0.033595153073498
   8     0.010646102581054
   9    -0.0095639022781247
  10    -0.014692740460587
  11     0.015318064569598
  12     0.035269116314567
  13     0.012035519380163
  14     0.063500863147961
  15      0.13350168189822
  16    -0.010727403803704
  17     0.030761303649989
  18     0.069176022446889
  19    -0.0018928970804322
  20    0.0066214936029519
  21     0.016277414406407
  22     -0.26492002656753
  23      0.30490454704009
  24     -0.14217077584265
  25     -0.12523212545295
  26      0.14886589871894
  27    -0.077562435718875
  28     0.074508808625753
  29     0.073688984965406
  30    -0.084397746589115
  31    -0.067025914123632
  32     -0.25806220218903
  33     -0.21177523942811
  34      0.20290354975518
  35      0.16282817837451
  36     0.025941394795783
  37    0.0073197374038608
  38    -0.010612904104747
  39    -0.0090478632305643
 Sym= A
 Ene=   -0.4316863898
 Spin= Alpha
 Occup=    2.00000
   1    -0.0012881477382957
   2    0.0050232415185322
   3     0.043843334503631
   4    0.0018564121444706
   5    0.0033343069964191
   6    -0.00055887342896929
   7    -0.002109442881418
   8    -6.1976692554265e-05
   9    -0.011942140880994
  10    -0.00023878579208856
  11    0.0037265365206561
  12     0.015431177025004
  13     0.096941673361899
  14     0.082804146373928
  15      0.27455099408718
  16     0.042955747693952
  17     0.051912887848172
  18      0.12909297196594
  19    -0.0026146494316439
  20    0.0074539294775425
  21    0.0048313640493436
  22     0.011418881538002
  23     -0.22874723961869
  24     -0.26718617416003
  25     0.017211151145774
  26     -0.11109586466889
  27     -0.13356459224045
  28      0.12269882842333
  29      0.11538419362746
  30     -0.20045813231855
  31     -0.17818154363716
  32      0.10302025154645
  33     0.079746850234791
  34      0.07137591503439
  35     0.078295369269113
  36     -0.25320609634568
  37     -0.23690061225095
  38    -0.021824873588516
  39    -0.047667194094625
 Sym= A
 Ene=   -0.4266267434
 Spin= Alpha
 Occup=    2.00000
   1    9.5470628522892e-06
   2    -2.9641179523498e-05
   3    2.7195198656295e-05
   4     0.018196734602639
   5     0.012763408242064
   6    -0.007360527977998
   7     0.036076116828927
   8      0.03313691606935
   9    -0.019782955362494
  10     0.011015686386344
  11    -0.027021504776396
  12    -0.012581578139273
  13     -0.26164526801878
  14     -0.31629524316768
  15      0.13106671632473
  16     -0.09375867949859
  17     -0.13246080587387
  18     0.052497944979662
  19     0.015202356617351
  20    -0.034508260055968
  21    -0.073642215297088
  22      0.31754521368814
  23      0.20023623432491
  24     -0.07265588019832
  25      0.14976779964618
  26      0.11538589737255
  27    -0.038111494706983
  28      0.19555410724001
  29      0.18079158519608
  30     0.039137907672965
  31     0.030091267602016
  32     0.075976202621535
  33     0.079287703978754
  34      0.11963357904806
  35      0.12132747999518
  36     0.027033447441249
  37     0.026906009770699
  38    0.0053341143398644
  39    0.0088496551512162
 Sym= A
 Ene=  -0.07132417548
 Spin= Alpha
 Occup=    0.00000
   1    -0.0050054398334336
   2      -0.0613895377539
   3      0.32839157297466
   4    -0.030190001768024
   5    0.0065708722766183
   6    -0.0071465855415998
   7    -0.072836312131003
   8      0.18501139210819
   9      0.14666841829351
  10     0.011410880357629
  11     -0.16417299598394
  12      0.43413923160355
  13      0.32911684968155
  14     -0.34080160142049
  15     0.021721928954286
  16      0.17356154175533
  17     -0.37081955620382
  18     0.073598639584875
  19    -0.055227151500451
  20       0.1208091501071
  21      0.71654871077107
  22     0.050237319349835
  23     0.022204773629161
  24     0.055224589455304
  25      0.16596271199926
  26       0.1970995829445
  27      0.11200337213883
  28    -0.021221154340083
  29     -0.40020564665352
  30    -0.026901139471492
  31     -0.17332796014505
  32     -0.12886425001179
  33       -0.443546194835
  34     0.041982085875708
  35     -0.23619270157094
  36    0.0085597618002536
  37     -0.46114045634498
  38     0.020420672413596
  39     -0.65377435729154
 Sym= A
 Ene=  -0.03592560931
 Spin= Alpha
 Occup=    0.00000
   1    0.0058449413411325
   2     0.062418175944446
   3     -0.46299787125768
   4    -0.0024627600266996
   5     0.011209803351734
   6    0.0049228067559213
   7     -0.20886900989854
   8    -0.0029769083897333
   9     -0.19781365097462
  10     0.087087274442831
  11     -0.39704764086403
  12      -0.5390356924002
  13      0.35324858448634
  14     -0.21450067217847
  15    -0.025829412833294
  16    -0.043798413395443
  17      0.19708202759104
  18     -0.14837538609113
  19     0.045564417467028
  20      -0.1371989995843
  21     -0.60058946412247
  22     -0.13469820449927
  23    -0.064040962482413
  24    -0.056193531166535
  25     -0.23712071992497
  26     -0.25637090106941
  27    -0.044507341687959
  28     0.068509086843063
  29       0.5085498690689
  30     0.025675062453829
  31      0.21676996032611
  32    -0.013102824346692
  33      0.35985506275788
  34     0.021661169664153
  35      0.32860530356406
  36     0.047276192415883
  37      0.46104433348178
  38      0.01496335238432
  39      0.72769155276151
 Sym= A
 Ene=    0.2738559304
 Spin= Alpha
 Occup=    0.00000
   1    0.0048757160905561
   2     0.054266095453972
   3     -0.16505544017844
   4     0.003770064853717
   5    -0.00031077944493069
   6    0.0015832255730067
   7      0.17826963248289
   8     0.036300444604837
   9    -0.0046612156883764
  10    0.0095674684395748
  11    -0.041157442123394
  12     -0.11762549121073
  13     0.095060220630979
  14      0.22943167351247
  15      0.33725351492953
  16      0.21764451432522
  17     0.070283237085034
  18      0.24180462061686
  19     0.042324180859626
  20     -0.30006760056398
  21     -0.14301197361383
  22    -0.024511722575042
  23      0.14142197202331
  24      0.50127949029035
  25     0.095246765230806
  26      0.17079276238034
  27      0.44695233101821
  28    -0.050870996907231
  29     -0.28975142938429
  30      0.17001957993729
  31      0.71543066197286
  32      0.05136188122161
  33      0.24541384028046
  34     0.081220584530132
  35      0.78016109217407
  36     -0.17180010587555
  37     -0.77188730462032
  38    0.0036812403388162
  39     0.058622171746057
 Sym= A
 Ene=    0.3008592303
 Spin= Alpha
 Occup=    0.00000
   1    0.0074046136238783
   2     0.078605190037504
   3      -0.2671726764546
   4    0.0033124895305591
   5    0.00025219797171682
   6    0.0011173666223205
   7      0.28182143531551
   8     0.071643977055318
   9    -0.062381078171493
  10    -0.027893821037739
  11      0.21925352742675
  12     0.035641150399264
  13     0.095833899412819
  14      0.20024278315264
  15     -0.19467098609754
  16      0.20822990892956
  17    0.0021437187974016
  18     -0.17531326204697
  19     0.084481359707804
  20     -0.59386930729207
  21     -0.30990552115752
  22    -0.067160757339511
  23      0.10765021106949
  24     -0.21241125769836
  25      0.13081244812626
  26     0.029000584498814
  27     -0.14449817756571
  28      0.16633142496756
  29      0.24346879788943
  30     -0.03407653711161
  31     -0.31886766015894
  32    -0.002306040514146
  33      0.32147360872756
  34    -0.070694308988589
  35    -0.021775516179179
  36     0.065062682038067
  37      0.59834702217451
  38     0.024817466871987
  39      -0.3482976765386
 Sym= A
 Ene=    0.3400475987
 Spin= Alpha
 Occup=    0.00000
   1    -0.0049013356161043
   2    -0.049827836291077
   3      0.29793595079962
   4    0.0039348497428704
   5     0.015046488956654
   6    0.0056037404982811
   7     -0.17111208486717
   8    -0.056212144322879
   9     -0.15607982254783
  10    -0.062558390879007
  11      0.39082039041373
  12      0.29172945886085
  13    -0.0060309961567605
  14     -0.33008673151561
  15      -0.2048258994669
  16     0.085850428962034
  17     0.046058553820728
  18     0.050875486838998
  19     0.052856018680941
  20     -0.43937720977085
  21     -0.15799686189744
  22      0.10268994372619
  23     -0.46850449373605
  24       0.3509453891388
  25      0.11406851060652
  26    0.0043797786023188
  27     0.047792948721375
  28     -0.08896240695654
  29     -0.21991309168382
  30     -0.11801979414692
  31     -0.51591283414409
  32     -0.13175474320198
  33     -0.14358987695529
  34     0.097318700491241
  35      0.76174355937067
  36     0.018520798827731
  37     0.093621407196665
  38    0.0092099534994856
  39    -0.052061049688174
 Sym= A
 Ene=    0.3530683289
 Spin= Alpha
 Occup=    0.00000
   1    0.0061655540592505
   2     0.062318228030684
   3     -0.30666859250779
   4    0.0023514702251124
   5    0.0071543431970468
   6    -0.008914270459166
   7     -0.12218091261656
   8     -0.38100934294608
   9      0.29839323591456
  10       0.0314529357602
  11     -0.12985241250063
  12     -0.10503040598219
  13     -0.38447306762844
  14     -0.15960897258064
  15      0.40177908385219
  16    -0.042010455290375
  17     -0.07674542011987
  18     -0.05416052331795
  19    0.0030992517105735
  20    -0.094401437179082
  21     -0.10443959605797
  22     -0.41306900495351
  23     -0.39422364167416
  24     -0.12772611824597
  25     -0.06284723157628
  26     -0.17726210028344
  27    -0.080361100856575
  28     -0.18436257612295
  29     -0.23549999604005
  30     0.048039997465739
  31      0.18774850547134
  32    -0.069162370386113
  33     0.087276752122704
  34     0.088808642005578
  35      0.13134931448907
  36       0.1173734666412
  37      0.45863032456833
  38    0.0020845754327611
  39    -0.093999577652506
 Sym= A
 Ene=    0.3716607133
 Spin= Alpha
 Occup=    0.00000
   1      0.00371022981915
   2     0.037183729181031
   3     -0.24538909814296
   4    -0.0024836145911011
   5    -0.00016474216768133
   6    -0.012895850760948
   7      0.18226658198683
   8     0.060748712218865
   9      0.30004440690581
  10    -0.060315108087328
  11      0.41019396057336
  12        0.189110594638
  13      0.26433772103822
  14     0.016692090593877
  15      0.29506189412968
  16      0.18650332897084
  17     0.026701160160651
  18     0.066559723609799
  19     0.024847348166198
  20     -0.08196365607586
  21    -0.073327434586366
  22      0.46131154042827
  23     -0.14648381805914
  24      -0.3202795968455
  25      0.26945430244455
  26      0.19913576704621
  27     0.012146458411175
  28     -0.17831107957055
  29     -0.35946283475033
  30      0.16188329167782
  31     0.043118093880934
  32    -0.083969380934205
  33     -0.39713399338648
  34    -0.026242492762242
  35     -0.13926853099454
  36    -0.016563744846127
  37      0.27211003066578
  38    0.0037974879126567
  39      0.39471523000751
 Sym= A
 Ene=    0.4029242237
 Spin= Alpha
 Occup=    0.00000
   1    -0.007541428744603
   2    -0.090542591265047
   3       0.1710220531349
   4    -0.016295573184774
   5    0.0097153957613863
   6    -0.0087438818824316
   7    -0.017172189838402
   8    -0.035480190540517
   9      0.13926305254203
  10    -0.050855665547513
  11      0.42217591948847
  12    -0.0065313095530583
  13    0.0022625887647635
  14     -0.50037479669604
  15     0.067457538219635
  16     0.042868873570005
  17      0.11032106131559
  18    -0.021693708150039
  19     0.018512400788747
  20     -0.16135104391937
  21    -0.052551063244243
  22     -0.39778909687575
  23      0.57055871229322
  24     -0.05027557765037
  25    -0.093552763117893
  26     -0.10331801817638
  27        0.072203266036
  28    -0.053084881764063
  29     -0.44136258824953
  30     0.045825168918787
  31     -0.37264669734015
  32      0.11520301008546
  33      0.71396690929065
  34     0.012423334467621
  35     -0.21424331143094
  36    -0.037493684116118
  37     -0.20215192255197
  38    -0.028339059832418
  39      0.16948930111972
 Sym= A
 Ene=    0.4941393279
 Spin= Alpha
 Occup=    0.00000
   1    -0.0097565443757241
   2    -0.099405844557894
   3      0.65837657707347
   4    -0.0039209711397339
   5     0.010938116958058
   6     0.016927906241222
   7     -0.11229645701841
   8      0.18173078882019
   9     -0.14583775938404
  10    -0.014641235478342
  11    -0.0051646454619725
  12      0.14534644781564
  13      0.23633048331365
  14     0.047995458345651
  15      0.65369267055987
  16     -0.14795663803194
  17     -0.14610780982329
  18     -0.55275376438196
  19     0.026401635672973
  20     -0.26173092944347
  21      0.18565801644203
  22     0.010939193534782
  23    -0.012028210148056
  24      -0.2491163723544
  25    -0.010567802653089
  26      0.20368418783354
  27    -0.010281283949356
  28     0.096508346679521
  29     -0.26790972599188
  30     -0.26682536588135
  31      0.23887764929617
  32    -0.015391494575097
  33      0.16019143211827
  34     -0.18289710820464
  35     -0.22962295214501
  36     0.075327456961131
  37      0.24659698601459
  38    -0.0030369869950302
  39     -0.39960963720553
 Sym= A
 Ene=    0.5877226567
 Spin= Alpha
 Occup=    0.00000
   1    -0.0032652281508374
   2    -0.035514498825239
   3      0.22721445081502
   4    0.0045948659860515
   5     0.018607507351179
   6    0.0012377904127813
   7     -0.23073612129453
   8     -0.20529007703667
   9     0.059610167029064
  10    -0.024227882308795
  11      0.18348803125924
  12      0.18865985941984
  13      0.40458367120057
  14      0.46300392821949
  15     -0.19075142277428
  16     -0.19443630511061
  17     -0.26550853489494
  18      0.25005900597159
  19     0.027720617606187
  20     -0.13068739282452
  21      0.18584828612243
  22     -0.18607192775844
  23      0.17578707875759
  24     -0.10656908611353
  25      0.83619306272646
  26    -0.066258739975768
  27      0.29399635082539
  28      -0.2897166476726
  29      0.11239036944857
  30    -0.037152822434283
  31     0.085973655031432
  32     -0.42829754375668
  33    -0.022255834052053
  34      0.15804406284505
  35     0.027188948654131
  36     -0.18004752341069
  37    -0.046214280986703
  38    0.0038042957888017
  39    -0.010926946739418
 Sym= A
 Ene=    0.6533602108
 Spin= Alpha
 Occup=    0.00000
   1    -0.0018526236103399
   2    -0.017479722900036
   3      0.19645843039878
   4    -0.0030676849435956
   5    -0.0065996747750656
   6     0.030579163035654
   7     0.037990830442769
   8      0.14544616703244
   9     -0.31791941494132
  10     0.019415137088346
  11     -0.11417931302171
  12    -0.020222517509853
  13    -0.098448520462849
  14     -0.12647079643659
  15    -0.055626218278157
  16    0.0064588881334476
  17    -0.0036223709843664
  18      0.26758463268434
  19    -0.0041194096158554
  20    -0.051831159905655
  21     0.078811154655605
  22    -0.073949733657008
  23     -0.18188950280811
  24       -0.415098552385
  25      -0.2382912262336
  26      0.26704287311553
  27       1.1341262434308
  28     -0.13119069047278
  29     -0.18045022035769
  30      0.24225360913352
  31       0.1624827542706
  32      0.23424977294559
  33      0.04149541045466
  34      0.51801870071409
  35     0.004590634599129
  36     -0.62483350025075
  37    -0.029793232874984
  38     0.037215890000675
  39     -0.26020128550333
 Sym= A
 Ene=    0.6781145888
 Spin= Alpha
 Occup=    0.00000
   1    0.0039430756084148
   2       0.0513876776027
   3      0.22725144099437
   4     0.038065852048162
   5     -0.01173352774568
   6    0.0081984480702276
   7     -0.12971275743919
   8    -0.063102016899782
   9     -0.10414861511682
  10    -0.023319184735672
  11     -0.22360595813771
  12      0.11222975062058
  13     -0.48423979627448
  14     0.015502701692602
  15     0.071713155693991
  16      0.79131218892743
  17      0.15272207293683
  18    -0.0058729550635745
  19    0.0090471373855202
  20     -0.32437158993404
  21     -0.11020724543297
  22      0.45649824595299
  23      0.31487245555785
  24    -0.096491468781943
  25     -0.24666746421368
  26     -0.77246955191451
  27      0.17311328062051
  28     -0.19128915221422
  29     0.036794963193701
  30    -0.089244097259384
  31       0.0648312774836
  32     -0.48125700816807
  33     0.044596238903775
  34      0.40539749575714
  35    -0.017077624629245
  36      0.27238648338932
  37    -0.032951131049671
  38     0.037217727473223
  39    0.0095345774250097
 Sym= A
 Ene=    0.8369934077
 Spin= Alpha
 Occup=    0.00000
   1    0.0015882418877533
   2     0.027314956067345
   3      0.52273410314727
   4    -0.011021380108415
   5    -0.059998436564986
   6    -0.011504295586595
   7       0.2822208782652
   8      0.75912782518685
   9      0.27862559801087
  10      0.03848324126658
  11    -0.063639349654205
  12      0.24462429881298
  13     -0.43811570364104
  14     0.072069553563357
  15    -0.098679437039531
  16       0.1418013982488
  17      -0.4466542670194
  18     0.094056003522705
  19    -0.065382749585843
  20      0.10170979556315
  21      0.49348611506898
  22     -0.47549163481608
  23     -0.29492340569517
  24    -0.025758428565753
  25      0.66480310867462
  26      0.24052226156477
  27    -0.045878561305771
  28      0.06118634714755
  29     -0.18556501335819
  30    -0.021009990516254
  31    -0.037201567239856
  32     -0.55996124316587
  33     0.048565272735789
  34     -0.22540680530214
  35    -0.090512183778673
  36     -0.10955777959021
  37     -0.11306573992571
  38    -0.035476924548097
  39      -0.2680549760396
 Sym= A
 Ene=    0.9175493934
 Spin= Alpha
 Occup=    0.00000
   1    -0.0010625971727361
   2    -0.018315271899772
   3     -0.38759557100376
   4     0.010318068855075
   5     0.016125274781026
   6     0.016452228661498
   7     -0.22709480364133
   8     -0.38635886107198
   9     -0.40500754171345
  10     0.051048705841353
  11      0.20296498824077
  12      -0.4019272591047
  13    -0.066561551352063
  14    0.0089355288788252
  15      0.14758353274835
  16       0.1919760143136
  17      0.94837124650628
  18    -0.069666881435486
  19    -0.040055546636743
  20      0.28070023513084
  21      -0.4198216802395
  22     0.031094062238102
  23    -0.063879790301938
  24    -0.064410666716256
  25      0.49616645658651
  26     -0.15711146025287
  27      0.12739164431676
  28       0.7057641144185
  29    -0.082695068507357
  30      0.77549684019448
  31      -0.1180687840402
  32     -0.57417711483181
  33      0.24592912796044
  34    -0.077354503600867
  35      0.10648743408352
  36    -0.022274313385119
  37     -0.11501545127132
  38    -0.010301318417428
  39      0.44913607180878
 Sym= A
 Ene=    0.9302792341
 Spin= Alpha
 Occup=    0.00000
   1    0.00072557031211362
   2     0.014481105070523
   3      0.48173788403273
   4     0.014115425438957
   5    -0.011991781009526
   6    -0.010990642379366
   7     -0.12572673545142
   8       0.3190089376352
   9      0.31311260316306
  10     0.023431237083931
  11     0.093413601475502
  12     -0.05739578296151
  13     0.070890712997118
  14      0.36939990012086
  15    -0.028841882152462
  16     -0.11880285058578
  17     -0.23090998964891
  18     0.078444633015911
  19     0.079284488084301
  20     -0.22425540013475
  21     0.077786143726432
  22     -0.17202673494537
  23     -0.21586067334105
  24     0.012686164494369
  25    -0.076326004378996
  26     0.024920270019042
  27     -0.15130667441431
  28      0.32650090657512
  29      -0.1885028544492
  30      0.50062499456451
  31     -0.31707666570932
  32      0.42225475116598
  33      -0.0645156419336
  34       0.6180995603705
  35     -0.38493696141249
  36      0.71284347316059
  37     -0.27182281292791
  38    -0.0071875503416332
  39     -0.40303362203905
 Sym= A
 Ene=     1.018201457
 Spin= Alpha
 Occup=    0.00000
   1    -8.8367391771344e-05
   2    -0.008825784308114
   3      -0.7323735769047
   4    -0.022766849443257
   5    -0.030965477195279
   6     0.011889605553023
   7      0.39118016242528