[Molden Format]
made by pyscf v[1.7.5.1]
[Atoms] (AU)
O   1   8    -2.21324723709060     0.56635091953215     0.00000000000000
C   2   6    -0.08749431956736    -1.07052984956611     0.00000000000000
C   3   6     2.30074155665796     0.50417893003396     0.00000000000000
H   4   1    -0.18103576273333    -2.29034806297285     1.66654946925393
H   5   1    -0.17990192705859    -2.25595504750577    -1.69054899103590
H   6   1     3.97787349220946    -0.70297811833820    -0.03344815240480
H   7   1     2.34817368238455     1.75876810413270    -1.64481761882143
H   8   1     2.38407847875128     1.71058008795629     1.67921063428851
H   9   1    -2.13368976724641     1.58056693058622     1.53048918828524
[GTO]
1 0
 s    6 1.00
             5484.6717   0.001831099805527
             825.23495   0.013950098518422
             188.04696    0.06844509273075
               52.9645    0.23271427528445
              16.89757    0.47019295006289
             5.7996353    0.35852086192309
 s    3 1.00
             15.539616   -0.11077750382508
             3.5999336   -0.14802630511126
             1.0137618     1.1307670390447
 s    1 1.00
             0.2700058                   1
 p    3 1.00
             15.539616   0.070874299543311
             3.5999336    0.33975279781076
             1.0137618    0.72715859531445
 p    1 1.00
             0.2700058                   1

2 0
 s    6 1.00
             3047.5249  0.0018347001629433
             457.36951    0.01403730124668
             103.94869   0.068842606114048
             29.210155    0.23218442062076
              9.286663    0.46794134155879
              3.163927    0.36231203217765
 s    3 1.00
             7.8682724   -0.11933240861517
             1.8812885   -0.16085421161283
             0.5442493     1.1434564825515
 s    1 1.00
             0.1687144                   1
 p    3 1.00
             7.8682724   0.068999095584993
             1.8812885    0.31642397975315
             0.5442493    0.74430825237435
 p    1 1.00
             0.1687144                   1

3 0
 s    6 1.00
             3047.5249  0.0018347001629433
             457.36951    0.01403730124668
             103.94869   0.068842606114048
             29.210155    0.23218442062076
              9.286663    0.46794134155879
              3.163927    0.36231203217765
 s    3 1.00
             7.8682724   -0.11933240861517
             1.8812885   -0.16085421161283
             0.5442493     1.1434564825515
 s    1 1.00
             0.1687144                   1
 p    3 1.00
             7.8682724   0.068999095584993
             1.8812885    0.31642397975315
             0.5442493    0.74430825237435
 p    1 1.00
             0.1687144                   1

4 0
 s    3 1.00
             18.731137    0.03349459952309
             2.8253937    0.23472694665786
             0.6401217    0.81375731841339
 s    1 1.00
             0.1612778                   1

5 0
 s    3 1.00
             18.731137    0.03349459952309
             2.8253937    0.23472694665786
             0.6401217    0.81375731841339
 s    1 1.00
             0.1612778                   1

6 0
 s    3 1.00
             18.731137    0.03349459952309
             2.8253937    0.23472694665786
             0.6401217    0.81375731841339
 s    1 1.00
             0.1612778                   1

7 0
 s    3 1.00
             18.731137    0.03349459952309
             2.8253937    0.23472694665786
             0.6401217    0.81375731841339
 s    1 1.00
             0.1612778                   1

8 0
 s    3 1.00
             18.731137    0.03349459952309
             2.8253937    0.23472694665786
             0.6401217    0.81375731841339
 s    1 1.00
             0.1612778                   1

9 0
 s    3 1.00
             18.731137    0.03349459952309
             2.8253937    0.23472694665786
             0.6401217    0.81375731841339
 s    1 1.00
             0.1612778                   1

[5d]
[7f]
[9g]

[MO]
 Sym= A
 Ene=    -19.19224378
 Spin= Alpha
 Occup=    2.00000
   1      0.99516973064943
   2     0.028446336649064
   3    -0.016449811654996
   4    0.0016385704702765
   5    -0.00026563061120631
   6    0.0014527515443395
   7    -0.003678869149555
   8    0.0015280667313239
   9    -0.0017971748608414
  10    -7.5966083233884e-05
  11    -0.0010835298060856
  12    0.0082448028095727
  13    -0.00039727352515568
  14    0.00028410734347683
  15    7.9229609327168e-05
  16    -0.0025966409116308
  17    0.0023094019415572
  18    0.00023874021108847
  19    -1.5376438855142e-05
  20    -0.00045973427007824
  21    -0.00053871732368113
  22    0.00042157431820353
  23    -2.538649545229e-05
  24    2.2476034246514e-06
  25    7.4060817126957e-06
  26    0.00064780182725172
  27    -2.5559688126136e-05
  28    -0.00055056686283642
  29    -0.00068890979098571
  30    -0.00045422443461304
  31    -0.00059999494607487
  32    -3.6758855125759e-05
  33    0.00078618664099415
  34    -8.2489549620525e-05
  35    -0.00031777405374835
  36    5.4810433209806e-05
  37    -0.00070691596951358
  38    0.00046494165760545
  39    0.0023700277745942
 Sym= A
 Ene=    -10.25746191
 Spin= Alpha
 Occup=    2.00000
   1    1.8375105512916e-05
   2    -0.00034731179363125
   3     0.003122244049932
   4    -0.00028510429370479
   5    0.00031052310465487
   6    0.00010707668376083
   7    0.00075833034006959
   8    -0.00078184639746608
   9    -0.00060458871501309
  10      0.99544027531527
  11     0.035867095498956
  12    -0.031433186835716
  13    -0.00029920268274712
  14    0.00025637911231259
  15    0.00011029416961499
  16    -0.0023121673245128
  17    -0.0012393663480252
  18    4.8896063860278e-05
  19    0.0017133766833219
  20    -0.0013312636728267
  21    0.0089510046963462
  22    0.0004719539148264
  23    0.00029495887809103
  24    -1.8188692936406e-06
  25    -0.0042951835427934
  26    -0.0025848720358771
  27    2.1368670563939e-05
  28    -0.00042755497985684
  29    0.0056127086829128
  30    -0.00036712673018167
  31    0.0056139489151803
  32    -0.00028934571490106
  33    0.00033405844899353
  34    -0.00037463804594618
  35    0.00036690960455819
  36    -0.00032048115423779
  37    0.00016859564186083
  38    0.00026474850770137
  39    0.0010421970170011
 Sym= A
 Ene=    -10.20446987
 Spin= Alpha
 Occup=    2.00000
   1    -2.0296521535574e-05
   2    -0.00047329275518441
   3    0.00069574970818364
   4    -0.0001416545818483
   5    -1.1078985611985e-05
   6    -2.0378746949276e-05
   7    0.00040696032481876
   8    0.0001206573511022
   9    0.00022425874258884
  10    -0.0017709686697675
  11    -0.0011977143070901
  12     0.007319878938873
  13    -0.00034914821070447
  14    -0.00038780246181831
  15    -4.4614890622388e-06
  16     0.003445475762571
  17    0.0022603549844437
  18    -9.3477654220667e-05
  19      0.99537989661481
  20     0.036307434949484
  21    -0.031867009243432
  22    7.0074615353877e-05
  23    0.00011671509685814
  24    7.1947164118008e-05
  25    0.0014350934199654
  26    0.00055835862726574
  27    -1.1594908876043e-05
  28    -0.00022491525688391
  29    0.00033906924476932
  30    -0.00025299724816224
  31    0.00028350762427731
  32    -0.00048753324779896
  33    0.0053792520991538
  34    -0.00042200984370638
  35    0.0056040126084303
  36    -0.00045708401176693
  37    0.0056447539331667
  38    -0.00031202920302664
  39    -6.5581772561281e-05
 Sym= A
 Ene=    -1.035697526
 Spin= Alpha
 Occup=    2.00000
   1     -0.20035916904776
   2      0.43486811451094
   3      0.45717890130291
   4     0.096572238395769
   5    -0.0091792668232059
   6     0.091816093566364
   7     0.060146153281915
   8    -0.014504897024883
   9     0.044878718039496
  10    -0.078830183623256
  11      0.15145913108438
  12     0.052504338695553
  13    -0.077553908363846
  14     0.069600379235359
  15    0.0075008335590586
  16     0.019859825055864
  17    -0.007506157342385
  18    0.0098443971391569
  19    -0.018765381157318
  20      0.03724553731221
  21     0.011458342687225
  22    -0.023804670533597
  23    -0.0051077712850495
  24    0.0010442470395096
  25    -0.0013326377437296
  26    0.0040582085419266
  27    -0.0025106871917944
  28     0.025253293664909
  29    -0.002616209011811
  30     0.024004480395398
  31    0.0064443250410696
  32    0.0055130980393141
  33    -0.0029234104742446
  34    0.0073992887583947
  35    0.00033398948850655
  36    0.0076802277223333
  37    0.0066014171730054
  38      0.13423237020177
  39    -0.0039060593897849
 Sym= A
 Ene=   -0.7571309327
 Spin= Alpha
 Occup=    2.00000
   1     0.060034474789768
   2     -0.13344016420769
   3     -0.17841826765863
   4     0.050334068823652
   5    -0.061806675409972
   6    -0.062329295373973
   7     0.011048997035167
   8    -0.018887225465706
   9    -0.027991300457242
  10     -0.12187533587885
  11      0.23659778119198
  12       0.2228888844804
  13       0.1004050250468
  14      0.01224967601931
  15    -0.0058034664714212
  16     0.019608286148698
  17    0.0024161899409066
  18    0.0072674820739177
  19     -0.16010422591095
  20      0.30120399422602
  21      0.27797383089151
  22    -0.037999140666437
  23    -0.033392937039789
  24    0.0019292566326668
  25    0.0010769381802994
  26    -0.0032665841667993
  27    -0.0008321554012986
  28     0.071042343892682
  29    0.0055636339252613
  30     0.074783287072526
  31     0.013547048099952
  32     0.095269555176413
  33     0.015801087664479
  34     0.090047961399053
  35     0.010943873219895
  36     0.092676993699908
  37     0.015465020770909
  38    -0.080546456212002
  39    -0.016704194781918
 Sym= A
 Ene=   -0.6296399538
 Spin= Alpha
 Occup=    2.00000
   1     0.027776056734244
   2    -0.062241230461575
   3    -0.093798519415551
   4     0.085286381364927
   5     -0.18716444557259
   6     -0.10815805185966
   7     0.030634651603527
   8    -0.080721833924818
   9    -0.046242415836129
  10     -0.12757485898505
  11      0.25624444055507
  12      0.30237819709538
  13    -0.099667125110507
  14    -0.094843498738932
  15    -0.022981395180406
  16    -0.0060396415184902
  17    -0.025525875591231
  18    -0.0047570643889853
  19       0.1129423869231
  20     -0.21014484335704
  21     -0.27728851306846
  22    -0.085871319930492
  23    -0.074914017967428
  24    -0.010049661591723
  25    -0.0047047541695688
  26    -0.018596694371353
  27    -0.0052076973017726
  28       0.1135235657521
  29     0.035794857132771
  30      0.12780985283094
  31     0.040315817189664
  32    -0.094962815674955
  33    -0.036737512545527
  34    -0.098600469628366
  35    -0.030613995318482
  36     -0.10873192608558
  37    -0.040209898599257
  38     -0.13013397534004
  39    -0.052087244283373
 Sym= A
 Ene=   -0.5012428169
 Spin= Alpha
 Occup=    2.00000
   1     0.035301825384456
   2    -0.080418809141172
   3     -0.13318405589723
   4     -0.11653627158599
   5      0.18480544643858
   6      0.28230466543481
   7    -0.060432680995787
   8      0.08725825589518
   9      0.14525984323423
  10    -0.032806578612282
  11     0.053151983456413
  12      0.10457895687606
  13      0.15454006944723
  14      -0.1723532979302
  15      0.23159230930854
  16     0.057380572582708
  17    -0.042049533377197
  18      0.12306897141936
  19      0.01784537118333
  20    -0.032536763853846
  21     -0.07278554559391
  22    -0.018893036983651
  23     -0.11267127977925
  24      0.11557207036349
  25    0.0029692536924578
  26    -0.046088799951855
  27     0.039902810929754
  28      0.17885435535661
  29      0.10090168038431
  30    -0.015510000065929
  31    0.0028646802306907
  32    0.0099949244026708
  33     0.008271781476615
  34     -0.10047300911832
  35    -0.061437644374168
  36     0.003311069238109
  37     0.015698014853343
  38      0.18460231326832
  39      0.10163170593224
 Sym= A
 Ene=   -0.4552680993
 Spin= Alpha
 Occup=    2.00000
   1     0.023794329399382
   2    -0.053991583763517
   3    -0.084976315502992
   4      0.20498020723571
   5     -0.17360270448456
   6    -0.0017353743124183
   7      0.11826007757521
   8    -0.094657336180455
   9     0.001100485048895
  10    -0.00072394882113764
  11    0.0035741883140112
  12    -0.0012536586833066
  13      -0.1267760472727
  14      0.19797156596893
  15      0.24963934372992
  16    -0.037466687944139
  17     0.093928473345024
  18      0.14196359089116
  19    0.00025769837485048
  20     0.002556623007425
  21    -0.014398480703997
  22    -0.099649000724229
  23      0.15071955834778
  24       0.2008711080191
  25    -0.039464018263334
  26     0.071415070494026
  27     0.085471823523401
  28     0.049438364246431
  29      0.02262626500232
  30     -0.17855863732019
  31      -0.1006700172634
  32     -0.10146078492648
  33    -0.071974055598241
  34    -0.041828358849253
  35      -0.0329915675794
  36      0.14617665784339
  37       0.1067067202141
  38    -0.084298740696718
  39    -0.053646708388329
 Sym= A
 Ene=   -0.4287702711
 Spin= Alpha
 Occup=    2.00000
   1    -0.035170413695074
   2     0.081231035298014
   3      0.13130745430168
   4     -0.14011255634141
   5     -0.22849601790121
   6    -0.052467652406694
   7    -0.093745676267232
   8      -0.1369607553035
   9    -0.025005352927599
  10     0.031187182188572
  11    -0.063202527670412
  12    -0.078757543334707
  13     -0.21885827577487
  14     -0.19565172018445
  15     0.093229243263018
  16     -0.10612007627258
  17    -0.091703499919833
  18      0.02600490823244
  19    -0.011036923044802
  20     0.019917336767963
  21      0.05520530119479
  22      0.33595893870875
  23     0.014157085091262
  24     0.098536132163711
  25      0.16105973171481
  26      -0.0201452229366
  27     0.052935667514286
  28     0.084735331491058
  29     0.078671893834318
  30    -0.010319069117174
  31    -0.0092052459179483
  32      0.17455093861805
  33      0.11613097295536
  34    -0.027197007666254
  35    -0.011429161426376
  36     0.072982011971668
  37     0.048613514925405
  38    -0.087207341558488
  39    -0.052638928075786
 Sym= A
 Ene=   -0.3806517906
 Spin= Alpha
 Occup=    2.00000
   1     0.022067031646814
   2    -0.048243761331839
   3     -0.10876000131962
   4    -0.096419496371078
   5    -0.0002869434877289
   6      0.13502555649222
   7    -0.063677633973292
   8    0.0020763612989502
   9      0.08250262555837
  10    -0.0038341866618147
  11    0.0019692736982419
  12      0.03085187382327
  13     -0.11795181105354
  14     -0.21246875098249
  15    -0.00071358338128695
  16    -0.066627048929527
  17    -0.088642908774271
  18     0.013387682222889
  19    0.0059117655172707
  20    -0.012238137468694
  21    -0.012214493666847
  22    -0.026378118797889
  23      0.37303144107448
  24     -0.14344217839352
  25    -0.0094057570238485
  26       0.1840195928866
  27    -0.088735372062447
  28     0.093468124979036
  29     0.076633227431302
  30     0.092220159926813
  31     0.077920275612103
  32     -0.17190204330717
  33     -0.14538938615763
  34      0.22200560238317
  35      0.17080126252696
  36      0.06549702139174
  37      0.06755351386872
  38     0.066279144412267
  39     0.058011851375749
 Sym= A
 Ene=   -0.3649105621
 Spin= Alpha
 Occup=    2.00000
   1    -0.022385354824334
   2     0.052823868592118
   3     0.068525654335169
   4     -0.15282297694789
   5      0.13261831460154
   6     -0.16242557005846
   7      -0.1011954320704
   8     0.091826873066223
   9     -0.11116931704512
  10    0.00058479767284525
  11    -0.0029641250193739
  12    0.0025539411505683
  13     0.075402040601112
  14     -0.10880068698102
  15      -0.1866376888816
  16     0.010173756433909
  17     -0.05908818401552
  18     -0.12886698844153
  19    0.0029026140165619
  20    -0.010828187229057
  21    0.0039430486988146
  22    -0.076742762304463
  23     0.098723202706598
  24      0.32812821236766
  25    -0.059685564681902
  26     0.045715544386066
  27      0.18985052278867
  28    -0.059975479412495
  29    -0.044076164989103
  30      0.14705507359333
  31      0.10695891631505
  32     -0.09547413638205
  33    -0.075366670903048
  34     -0.14586601696196
  35     -0.10880483460437
  36      0.23093588300348
  37      0.19960166313942
  38    -0.0058762162049979
  39     0.023255601057089
 Sym= A
 Ene=   -0.3085549908
 Spin= Alpha
 Occup=    2.00000
   1     0.059354993143828
   2     -0.13409599210749
   3     -0.23448260172979
   4      0.32061450331247
   5    -0.025089381367765
   6      0.31769479494258
   7      0.24305803398958
   8    -0.036206733862885
   9       0.2199883709441
  10    -0.0078662029901115
  11     0.021253611949633
  12    -0.0019630307167403
  13     -0.18136842047344
  14     0.011642803233237
  15     -0.22280216975812
  16    -0.023069810833619
  17    0.0056687515817066
  18    -0.039131853336293
  19     0.015955843616841
  20    -0.027006273048607
  21    -0.091944106862538
  22      0.15986748616458
  23      0.01123016986142
  24     0.088476834273919
  25      0.08964135786408
  26     0.029575006421079
  27    0.0059756074451554
  28     -0.13778287872115
  29      -0.1656376201597
  30      0.16334994620433
  31      0.18639527137301
  32     0.082296053355012
  33     0.093442377196264
  34    -0.073842431958252
  35    -0.099962911480087
  36     0.058612245869247
  37     0.099883159155639
  38      0.13798272126899
  39      0.09912455423856
 Sym= A
 Ene=   -0.2568951905
 Spin= Alpha
 Occup=    2.00000
   1    -0.00070872247541289
   2    -0.0022450126536797
   3     0.029474960014964
   4      0.33004160272314
   5      0.39876522897182
   6     -0.28099261955103
   7      0.26717518596868
   8      0.30786507173732
   9     -0.22225568747675
  10    0.0023099150208406
  11    -0.0085839773701381
  12    -0.0015150757315504
  13      -0.1022532978544
  14     -0.11718165858002
  15     0.094419110209497
  16      0.02305431527952
  17    -0.047846062133984
  18    0.0066497962528198
  19     0.030056280422657
  20    -0.062221710554646
  21     -0.17920236559389
  22      0.18450013330322
  23     0.068064617312765
  24    -0.020415781709169
  25     0.061438529991239
  26      0.10588583912153
  27     0.020213929509766
  28      0.14716724360831
  29      0.17882883988418
  30    -0.0097109036628546
  31    -0.018240322179935
  32     0.061042075287754
  33      0.13223023690112
  34     0.021928600818943
  35     0.068258452521322
  36    -0.016341728673927
  37    -0.016787506139593
  38    -0.0012140771021399
  39    -0.0034335040498211
 Sym= A
 Ene=   0.06861830305
 Spin= Alpha
 Occup=    0.00000
   1     0.068268032221155
   2     -0.12297230518571
   3     -0.81979733486729
   4     -0.07762207122261
   5     -0.11645168480834
   6     -0.21043615534919
   7     -0.11880519239221
   8     -0.20426161692653
   9     -0.34385920436821
  10     0.028854515378119
  11    -0.023793047624241
  12     -0.61068950515137
  13     -0.10187360914068
  14      0.13665931741037
  15    -0.056042748015457
  16     -0.22955221617403
  17      0.36658546861298
  18     -0.10563733738599
  19     0.048768708221939
  20     -0.05515022194016
  21     -0.73454074528727
  22    -0.068530884419687
  23    -0.076487320763346
  24    -0.075828680535912
  25     -0.24437631285091
  26     -0.31230788347566
  27     -0.16724130386175
  28     0.019476218467814
  29      0.57232539193772
  30    -0.017773237593061
  31      0.21925598391015
  32     0.056374561523003
  33      0.41578868224023
  34    -0.012848429781617
  35      0.23655969990599
  36    -0.010163522933934
  37      0.60740082572524
  38      0.10934742407011
  39       1.0977491644542
 Sym= A
 Ene=    0.1200148446
 Spin= Alpha
 Occup=    0.00000
   1     0.052070199257466
   2    -0.080950685045518
   3     -0.68287666917257
   4     -0.05718148579493
   5     0.044500556887372
   6     -0.12692431878351
   7     -0.13966570930082
   8     0.098318501334177
   9     -0.17071286276762
  10    -0.072930705636919
  11        0.126630509688
  12       1.0272399848694
  13     -0.14034670144831
  14    -0.062305888308603
  15    -0.067521109276614
  16     -0.46198007355749
  17     -0.29505965147756
  18     -0.21846873915719
  19    -0.099076071920485
  20      0.11787365086029
  21       1.7198623772433
  22      0.10653112981238
  23     0.040306040933362
  24    -0.054134800930589
  25      0.25670052939138
  26       0.2524299575238
  27     -0.10784906357143
  28     0.014199262517509
  29     -0.43155631149501
  30    -0.036900047016212
  31     -0.94680456140362
  32     0.029759606835586
  33       -0.702844930564
  34    -0.055918270301879
  35     -0.98844393100404
  36    -0.033953308750213
  37       -0.682223114574
  38       0.0927835942671
  39      0.61949223115862
 Sym= A
 Ene=    0.1407653801
 Spin= Alpha
 Occup=    0.00000
   1      -0.0225986500913
   2     0.051820818856747
   3       0.2195379849289
   4      0.08870372870733
   5     -0.08670465054885
   6    -0.013608697542591
   7      0.16571983262647
   8     -0.14290362552644
   9    -0.013102159042077
  10    -0.060224267411287
  11     0.055511515237541
  12       1.2020859999102
  13      0.13355693054789
  14     -0.19719501886461
  15     -0.11404832380858
  16      0.52201478188367
  17     -0.43793880961065
  18     -0.29397537949369
  19      0.06879487765937
  20    -0.057641237081142
  21      -1.2487804139036
  22     0.084752972681376
  23     -0.15148142686373
  24     -0.15448735990881
  25      0.38416928786191
  26     -0.30351681148959
  27     -0.43587040664405
  28    -0.0077686800443046
  29     -0.40347772600748
  30    -0.089973905084726
  31      -1.2154997785114
  32    -0.066533865492093
  33     -0.35465881022588
  34     0.010318456219283
  35      0.26815271808125
  36      0.08589990963968
  37       1.3491912356114
  38    0.0085349706409261
  39      0.15904622335449
 Sym= A
 Ene=    0.1532423858
 Spin= Alpha
 Occup=    0.00000
   1    -0.027663717420877
   2     0.048125053968246
   3      0.37221845367589
   4     0.062411167089243
   5    0.00031417998756653
   6       0.0902173114476
   7      0.11060509319735
   8    -0.044465035728619
   9      0.20965558004401
  10      0.07897037653934
  11    -0.085348662308365
  12      -1.3468809863334
  13     0.037862839526319
  14     0.085957044244523
  15     -0.25716682907065
  16     0.015676181465925
  17      0.18901225989359
  18     -0.69959707339316
  19    -0.049678306330268
  20     0.041217440673103
  21      0.86968159539378
  22    0.0042286908244792
  23     0.041886996596503
  24     -0.20751951912052
  25    -0.062615642407839
  26    -0.027804091042619
  27     -0.55359433345458
  28     0.093903492525134
  29       1.6270900197999
  30    -0.035832026930949
  31     -0.17234886794609
  32    -0.025804851403888
  33     -0.29666010423515
  34    -0.073840900021253
  35      -1.1098037669192
  36     0.072114436936082
  37      0.44367676861185
  38    -0.034324930271133
  39     -0.34755790505259
 Sym= A
 Ene=    0.1649371926
 Spin= Alpha
 Occup=    0.00000
   1    0.0022728001636146
   2    -0.025878072441054
   3      0.12903081183472
   4     -0.09950884456628
   5     0.031179293976949
   6     0.047853607201878
   7    -0.065130223866275
   8     0.066936611439328
   9     0.096431466230901
  10    -0.048883717560222
  11     0.074150043916598
  12      0.78131271549437
  13    -0.029518962259524
  14    -0.027226396057283
  15    -0.060864522335552
  16       0.1176006543511
  17     -0.45549940302157
  18     -0.18726698421216
  19     0.047508232714837
  20    -0.049621656091427
  21     -0.80794072362013
  22     -0.25008658843045
  23      0.23910138828692
  24    -0.078225148790345
  25     -0.80967318908529
  26       1.0032880098675
  27     -0.23004817546717
  28    0.0069932607303483
  29      -0.2801370980103
  30    -0.037334042000156
  31     -0.75448761714288
  32      0.10399010249429
  33       1.9351806632256
  34    -0.061342024461913
  35     -0.70762740494184
  36    -0.0031966184486358
  37    -0.057686501162281
  38    -0.033640693028422
  39     -0.18997809788462
 Sym= A
 Ene=    0.1883153293
 Spin= Alpha
 Occup=    0.00000
   1    0.0065366388038547
   2    -0.020497123174673
   3     -0.01821924003517
   4     0.020203580343244
   5    -0.042228662234469
   6     0.069752122208902
   7     0.027918196112514
   8    -0.043831890684466
   9      0.15877702722044
  10    -0.0017284523788538
  11     0.011557675485388
  12     0.015760034606502
  13    -0.0037761838527875
  14     -0.02212031490609
  15     -0.32787652794214
  16    0.0071592989676676
  17     -0.11687706199235
  18      -1.2797363958256
  19    0.0077165405898891
  20    -0.010530760228982
  21     -0.11977229221238
  22     -0.02690591445506
  23    -0.016241818511153
  24      0.26970040720444
  25    -0.075584823365515
  26    -0.045552587255676
  27       1.2874914445401
  28     0.011237673976771
  29       1.0890860386092
  30    -0.034401078790829
  31        -1.28611599138
  32    -0.0012615898239835
  33      0.10576628076882
  34     0.068193313841079
  35       1.2571866598453
  36    -0.054391467457923
  37      -1.0923609948062
  38     0.040533272229436
  39      0.10453632800389
 Sym= A
 Ene=    0.2172891049
 Spin= Alpha
 Occup=    0.00000
   1     0.045515646896986
   2    -0.048577956337962
   3     -0.78984525788092
   4     -0.24458188703144
   5      0.26633872643226
   6      0.11710143774927
   7     -0.65031607446162
   8      0.55543921992156
   9      0.24599675298773
  10     -0.10802684578145
  11      0.11951343312674
  12       1.7957594309583
  13     -0.12915193980742
  14      0.27103753233722
  15    -0.050591484923938
  16      -0.4746875260313
  17       1.4060101382401
  18     -0.17552512638108
  19     0.061593501163194
  20    -0.018760842133304
  21      -1.2648213271584
  22      0.06080185099748
  23    -0.048891956580533
  24    -0.028462287068859
  25      0.99224444922876
  26     -0.19841628339731
  27    -0.084796387273558
  28     0.064080016794477
  29      0.29925963235693
  30     0.046266389661948
  31     -0.12450747154383
  32     0.013043685564273
  33     -0.30368744808646
  34    -0.043352337313018
  35      0.31579262510561
  36    0.0033980326468975
  37      0.58911671346506
  38    -0.037158970559349
  39     -0.74246154950673
 Sym= A
 Ene=    0.2384766984
 Spin= Alpha
 Occup=    0.00000
   1    -0.0062346156528495
   2     0.021409555994296
   3     0.015595315042302
   4    0.0023403334347539
   5     -0.15844977732827
   6    -0.077582659148519
   7    -0.029893530575405
   8     -0.35959589241211
   9      -0.1289505834735
  10    -0.045600415213173
  11      0.01932971111609
  12       1.1425458007672
  13      0.35055543504404
  14      0.20122494987842
  15    -0.011233136402221
  16       1.5324196030756
  17      0.86404047180633
  18     0.019898771244978
  19     0.052243060989562
  20    -0.013644571967847
  21      -1.1649270333974
  22      0.18726618392495
  23      0.25946382788841
  24     0.024679623067775
  25       1.3413886991999
  26       1.1755150172074
  27     0.095521314815402
  28     0.023147978149108
  29      0.34719840635433
  30     0.046218857718005
  31      0.37536430208335
  32    -0.069141363163311
  33    -0.013310741865651
  34    -0.038437723891127
  35     -0.40185964391784
  36    -0.067943533589719
  37     -0.63110499848975
  38     0.032070803813636
  39      0.46408585766765
 Sym= A
 Ene=    0.5478864199
 Spin= Alpha
 Occup=    0.00000
   1     0.005784943086915
   2    -0.030227771018341
   3      0.17395158464311
   4      -0.1625786331736
   5     0.041668571889353
   6     0.002182773223452
   7     -0.09234099166125
   8     -0.13426939954529
   9    -0.0023339419923935
  10    -0.031430482004036
  11      0.14578135944719
  12     -0.46684914124677
  13      -0.6407501792785
  14      -0.1555827174789
  15    -0.045267986623322
  16      0.92264470108579
  17       0.6644791197195
  18     0.066590395296555
  19    0.0033872215439877
  20    -0.053051651274127
  21       -0.628975733586
  22      0.38777831777107
  23      0.55304061847618
  24    -0.084193839614044
  25     -0.35947314741672
  26     -0.88372068219845
  27      0.15798218410645
  28     0.041600382619933
  29      0.13327232402589
  30      0.13025150091282
  31      0.13252525415404
  32    -0.013742162192478
  33    -0.095851740592707
  34      0.21894305651785
  35      0.18826445453283
  36      0.10964778443102
  37      0.12834439452976
  38    -0.033407308248654
  39     0.019350454260618
 Sym= A
 Ene=    0.5701193137
 Spin= Alpha
 Occup=    0.00000
   1    -0.0077254665637446
   2     0.031979561849543
   3     0.072078669934912
   4    -0.015535783998024
   5     0.067901339854295
   6    -0.060435080246094
   7     0.042785010631246
   8     0.019178551626331
   9    -0.014678078555152
  10    0.0020214718250992
  11    0.0057357109979152
  12     0.039781194766537
  13     0.017400431450856
  14      0.10107611059468
  15      -0.2085317343869
  16     -0.08579261651169
  17     -0.23083601341923
  18      0.32542192644089
  19    -0.0022788962534135
  20    0.0023784851504721
  21      0.14782077190796
  22    -0.095327601128951
  23    -0.088513755282242
  24     -0.68823528133993
  25     0.081042151904544
  26       0.1222628885564
  27       1.3423707426311
  28     -0.30101218571432
  29    -0.090858946354393
  30      0.24880340521496
  31     0.021841819031636
  32    -0.014753605717158
  33    -0.0031512080807589
  34      0.38804376591874
  35      0.20021103415334
  36     -0.43138683929991
  37     -0.24319794218856
  38    -0.033860632715376
  39    -0.094486120729744
 Sym= A
 Ene=    0.5784451008
 Spin= Alpha
 Occup=    0.00000
   1    -0.011787208620185
   2      0.17175951246579
   3     -0.86130562233811
   4       0.2426305503789
   5    -0.081609755432215