[Molden Format]
made by pyscf v[1.7.5.1]
[Atoms] (AU)
O   1   8    -2.21324723709060     0.56635091953215     0.00000000000000
GHOST-C   2   0    -0.08749431956736    -1.07052984956611     0.00000000000000
GHOST-C   3   0     2.30074155665796     0.50417893003396     0.00000000000000
GHOST-H   4   0    -0.18103576273333    -2.29034806297285     1.66654946925393
GHOST-H   5   0    -0.17990192705859    -2.25595504750577    -1.69054899103590
GHOST-H   6   0     3.97787349220946    -0.70297811833820    -0.03344815240480
GHOST-H   7   0     2.34817368238455     1.75876810413270    -1.64481761882143
GHOST-H   8   0     2.38407847875128     1.71058008795629     1.67921063428851
H   9   1    -2.13368976724641     1.58056693058622     1.53048918828524
[GTO]
1 0
 s    6 1.00
             5484.6717   0.001831099805527
             825.23495   0.013950098518422
             188.04696    0.06844509273075
               52.9645    0.23271427528445
              16.89757    0.47019295006289
             5.7996353    0.35852086192309
 s    3 1.00
             15.539616   -0.11077750382508
             3.5999336   -0.14802630511126
             1.0137618     1.1307670390447
 s    1 1.00
             0.2700058                   1
 p    3 1.00
             15.539616   0.070874299543311
             3.5999336    0.33975279781076
             1.0137618    0.72715859531445
 p    1 1.00
             0.2700058                   1

2 0
 s    6 1.00
             3047.5249  0.0018347001629433
             457.36951    0.01403730124668
             103.94869   0.068842606114048
             29.210155    0.23218442062076
              9.286663    0.46794134155879
              3.163927    0.36231203217765
 s    3 1.00
             7.8682724   -0.11933240861517
             1.8812885   -0.16085421161283
             0.5442493     1.1434564825515
 s    1 1.00
             0.1687144                   1
 p    3 1.00
             7.8682724   0.068999095584993
             1.8812885    0.31642397975315
             0.5442493    0.74430825237435
 p    1 1.00
             0.1687144                   1

3 0
 s    6 1.00
             3047.5249  0.0018347001629433
             457.36951    0.01403730124668
             103.94869   0.068842606114048
             29.210155    0.23218442062076
              9.286663    0.46794134155879
              3.163927    0.36231203217765
 s    3 1.00
             7.8682724   -0.11933240861517
             1.8812885   -0.16085421161283
             0.5442493     1.1434564825515
 s    1 1.00
             0.1687144                   1
 p    3 1.00
             7.8682724   0.068999095584993
             1.8812885    0.31642397975315
             0.5442493    0.74430825237435
 p    1 1.00
             0.1687144                   1

4 0
 s    3 1.00
             18.731137    0.03349459952309
             2.8253937    0.23472694665786
             0.6401217    0.81375731841339
 s    1 1.00
             0.1612778                   1

5 0
 s    3 1.00
             18.731137    0.03349459952309
             2.8253937    0.23472694665786
             0.6401217    0.81375731841339
 s    1 1.00
             0.1612778                   1

6 0
 s    3 1.00
             18.731137    0.03349459952309
             2.8253937    0.23472694665786
             0.6401217    0.81375731841339
 s    1 1.00
             0.1612778                   1

7 0
 s    3 1.00
             18.731137    0.03349459952309
             2.8253937    0.23472694665786
             0.6401217    0.81375731841339
 s    1 1.00
             0.1612778                   1

8 0
 s    3 1.00
             18.731137    0.03349459952309
             2.8253937    0.23472694665786
             0.6401217    0.81375731841339
 s    1 1.00
             0.1612778                   1

9 0
 s    3 1.00
             18.731137    0.03349459952309
             2.8253937    0.23472694665786
             0.6401217    0.81375731841339
 s    1 1.00
             0.1612778                   1

[5d]
[7f]
[9g]

[MO]
 Sym= A
 Ene=    -19.15253466
 Spin= Alpha
 Occup=    2.00000
   1      0.99498836974162
   2     0.029604639451739
   3    -0.017369399489217
   4    0.0025682703839934
   5    -0.00096059320876856
   6    0.0014480348411685
   7    -0.0042747088926958
   8     0.001979448069355
   9    -0.0017887656892403
  10    -8.7596547721664e-05
  11    -0.0010894977080322
  12    0.0089244256108577
  13    -0.00044390388599509
  14    0.00031115103769865
  15    7.1097375159211e-05
  16    -0.0028581594706024
  17    0.0025278732271141
  18    0.00026031941667508
  19    -2.7639692863738e-05
  20    -0.00048396992286097
  21    -0.00058858398993307
  22    0.00042959426497045
  23    -2.3023388621998e-05
  24    3.0348146250525e-06
  25    -7.834045642837e-06
  26    0.00068060269381924
  27    -3.5042542600335e-05
  28    -0.00058056107187413
  29    -0.00072284941230626
  30    -0.0004845422721658
  31    -0.00062060563443434
  32    -3.3160296492989e-05
  33    0.00085070986977755
  34    -8.5128229562207e-05
  35    -0.00034306612428519
  36    4.6435195999496e-05
  37    -0.00071017218500953
  38    0.00050911728417757
  39    0.0022906385819891
 Sym= A
 Ene=    -1.114983393
 Spin= Alpha
 Occup=    2.00000
   1     -0.21445522844436
   2      0.46295645301176
   3      0.55502003506862
   4      0.19670828360033
   5    -0.094187348093748
   6     0.082241845764781
   7      0.13243517052496
   8     -0.06843307744901
   9     0.047558247917545
  10    0.0049130141909149
  11     0.063985948097948
  12    -0.076199996113974
  13    -0.032405976022175
  14     0.025358755869833
  15    -9.6094200762826e-05
  16     0.044849627210588
  17    -0.024088510150475
  18    0.0063220100448391
  19    0.00077832073485943
  20    0.0079684331571778
  21    -0.015771055908578
  22    -0.0020624792505994
  23    0.00050177595000315
  24    -7.3379897467201e-05
  25    0.0077512449880738
  26    -0.003072753701835
  27    -0.0022243126857624
  28    0.00098378561457561
  29    0.0045519803529087
  30    0.0016553735408115
  31     0.012322404867752
  32    0.00052907193623289
  33    -0.0086444673167528
  34     0.001275827037305
  35    0.0060984900785277
  36    0.00070643972168453
  37     0.011069655413851
  38      0.10350295763562
  39     -0.01034950458006
 Sym= A
 Ene=   -0.5651438645
 Spin= Alpha
 Occup=    2.00000
   1    -0.011690211926052
   2     0.027993872306244
   3    -0.081907657376349
   4     -0.27003687013647
   5       0.4094034587717
   6      0.28671974115553
   7     -0.17697947423365
   8      0.23167362984805
   9      0.13651498939728
  10    -0.0061794582355085
  11     -0.07516434549445
  12    -0.010849596574806
  13      0.04056460306498
  14    -0.030295370016469
  15    0.0015296211043535
  16    -0.015606380270174
  17     0.011282354694628
  18     0.010635584530088
  19    -0.0005735626455546
  20    -0.0058069378009609
  21     0.010835506136165
  22    0.0015805234561288
  23    -0.00067816167334385
  24    -4.9933403275665e-05
  25    -0.0099295273148326
  26    0.0030630157845787
  27    -0.003405424427032
  28    -2.6235471843926e-05
  29    -0.0054606632099724
  30    0.0025378048218405
  31    -9.0635799750614e-05
  32    0.00013779779605003
  33    0.0065077811089138
  34    -0.0010093153914596
  35    -0.0081589812202798
  36    -0.0012386052099691
  37    -0.00079266531816233
  38      0.29638377153357
  39      0.12871373949473
 Sym= A
 Ene=   -0.3597277065
 Spin= Alpha
 Occup=    1.99995
   1     0.084548529536772
   2     -0.19773366396224
   3     -0.23482067323549
   4      0.42533546022442
   5    -0.053618249229253
   6      0.38439355538255
   7      0.32791136388062
   8    -0.065905292725522
   9      0.26125705124169
  10    0.0033266115270976
  11     0.039180564012195
  12     0.014670310996693
  13    -0.020426997771065
  14     0.015527287223847
  15    -0.0013259691774084
  16     0.063348766952867
  17     0.027003553851121
  18     0.097643517359544
  19    0.00079266846513267
  20    0.0075816471347556
  21    -0.055073333682676
  22    0.00093875304765258
  23    0.00044061655987169
  24    0.00090000528034503
  25     0.013293796483171
  26     0.014498224966138
  27     -0.03620246612832
  28    -0.0052518432451813
  29    -0.016034805381605
  30     0.008175985355871
  31     0.045812313797286
  32    0.0016569338447188
  33    0.0043361071719284
  34    0.0011167212157964
  35    -0.017361385303471
  36    0.0009856726329372
  37      0.03980109196342
  38      0.10392343753694
  39     0.054488618527058
 Sym= A
 Ene=   -0.3178039272
 Spin= Alpha
 Occup=    1.99956
   1    -0.00064111128940949
   2    -0.00074430476230025
   3     0.017159623918529
   4      0.33913194965182
   5      0.44350130166459
   6     -0.31327375159064
   7      0.25581991340879
   8      0.32529625055403
   9     -0.23227158577954
  10    -5.5212113728967e-05
  11    -0.00077290281773406
  12    0.0043533005737498
  13    0.0006547858676618
  14    0.0031192716529281
  15    -0.00082256645442168
  16     0.062124135812138
  17     0.031807279028742
  18     -0.04776699162781
  19    -0.00011375199157594
  20    -0.001869434315846
  21    -0.042199675803712
  22    0.0053047020572535
  23    -0.001419537170851
  24    -0.0011620715335371
  25    -0.030026439002422
  26     0.037314852237702
  27      0.02208041618621
  28     0.007891173887691
  29    -0.0045800511323991
  30    -0.0013215303340044
  31    -0.0092300837807284
  32    0.0034784730322147
  33     0.035262765870891
  34    -0.0015520658105837
  35     0.026413430784286
  36    -0.0030883334258739
  37    -0.002293978638656
  38    -4.1540497231421e-05
  39    -0.001598429932123
 Sym= A
 Ene=   0.01675597558
 Spin= Alpha
 Occup=    0.00049
   1     0.056122065770466
   2     -0.15042058116823
   3     -0.47776076083105
   4     -0.14755899575552
   5    -0.0068614703827887
   6     -0.13379045815321
   7    -0.098615234443732
   8    -0.097902707927564
   9     -0.21302468084117
  10    0.0038290854498506
  11      0.03622040691251
  12     0.037417665978465
  13    -0.0093857895543679
  14    0.0066199545876504
  15    -0.0002883171657718
  16    -0.0063350245330143
  17      0.12743371847534
  18    0.0031613961658069
  19    0.0016482784787372
  20     0.016415754468031
  21     -0.20823820661387
  22    0.0025889462069827
  23    0.0031383847206028
  24    -0.00066851926649052
  25    -0.084353306923201
  26    -0.096853136471444
  27    -0.007058986354192
  28    -0.021395095752794
  29      0.38347922945372
  30    -0.014714001147285
  31      0.30907931362998
  32    -0.011687505822836
  33      0.23374164657213
  34    -0.0091823560354255
  35      0.26300154619287
  36    -0.015690289698487
  37      0.35553624901605
  38     0.058251500457437
  39      0.63672927244673
 Sym= A
 Ene=    0.1164847613
 Spin= Alpha
 Occup=    0.00000
   1      0.04794961201027
   2    -0.060999999315562
   3     -0.68253710507918
   4     0.077542653818665
   5     -0.19667460756756
   6     -0.24679909326294
   7     0.080817726666013
   8     -0.31017903195355
   9     -0.40264077916533
  10    0.00047571834087654
  11    0.0083876154841729
  12     -0.16993713844095
  13    0.0040638610643637
  14    -0.0015238256395741
  15    -0.00059533348311493
  16    -0.097004094503144
  17     -0.09956458010448
  18    -0.039676266819059
  19    -0.00018032458479708
  20    -0.0010245803447768
  21      0.15228167995016
  22    -0.0010607621542041
  23    -0.0015393614522646
  24    2.1589588612607e-05
  25     0.040399644180217
  26    -0.031209924311315
  27    -0.035502787912263
  28     0.011347438937471
  29     -0.16229883071501
  30     0.015640260114038
  31     -0.23551465846401
  32     0.022459569500541
  33     -0.38909487221701
  34     0.011868317861102
  35     -0.23340971758785
  36    -0.0030450145923104
  37    -0.0055389349563426
  38         0.14112601513
  39       1.3009072672043
 Sym= A
 Ene=    0.1490193045
 Spin= Alpha
 Occup=    0.00000
   1      0.01566593077081
   2     -0.06468690799672
   3    -0.032645950222208
   4    0.0085313934399759
   5        0.160031244246
   6    -0.012731491605126
   7    0.0079880964211208
   8      0.11361541357325
   9     0.010955888912007
  10    0.0082754173693094
  11     0.080665823452219
  12     -0.42998305500457
  13    -0.0065667984557441
  14     0.008403997067335
  15    0.0011369111539955
  16     -0.28175505518993
  17     -0.12230625873065
  18    -0.033085015493531
  19    -0.0067128160458257
  20    -0.066281117734552
  21       0.7650347653667
  22    4.7326199385608e-05
  23    0.0067999956811434
  24    9.0743536811337e-05
  25    -0.097196128171993
  26      -0.1228279292187
  27     0.030094617957628
  28    -0.025576170737706
  29      0.57275823505369
  30    -0.022193648766656
  31       0.4374179755944
  32     0.002206645693859
  33     -0.35637560509728
  34      0.02126890015272
  35     -0.47945834344579
  36     0.028855902092162
  37     -0.63282586592872
  38     0.026508343815522
  39    -0.068167521993406
 Sym= A
 Ene=    0.2052309536
 Spin= Alpha
 Occup=    0.00000
   1    -0.022539137814852
   2     0.055237509252466
   3      0.18352926153703
   4    -0.002663384408912
   5     0.062689021212344
   6     -0.08415497703936
   7    0.00089280806306682
   8     0.062646263589252
   9     0.020656998528393
  10    -0.00069083945303357
  11    -0.0072407282727842
  12    -0.040474535428138
  13    0.00093646988473332
  14    -0.0031255373851737
  15    -0.0043753762079854
  16      0.04884984070077
  17     0.050031002296524
  18      0.10172022796787
  19    6.6054623081402e-05
  20    0.00043413007122536
  21    -0.045553158260699
  22    0.00039808426813419
  23    0.0012468514222431
  24    -0.014673557498451
  25     0.019466380575545
  26    0.0023453568752766
  27      0.02832498342889
  28    -0.052844065411627
  29      0.71459523639076
  30     0.054198843630721
  31     -0.63504819296012
  32    -0.000743511708796
  33    0.0072932124385049
  34     0.041429334911073
  35     -0.46731096471411
  36    -0.039022544867342
  37      0.47423752170952
  38     -0.11582300655685
  39     -0.24341208293826
 Sym= A
 Ene=    0.2717324321
 Spin= Alpha
 Occup=    0.00000
   1    -0.010282519709708
   2     0.053885768229785
   3        0.119726003148
   4      0.12732112218522
   5    -0.079534011011937
   6    -0.084958759813892
   7      0.15705566743567
   8     -0.22314673787936
   9     -0.13353741721134
  10     0.002016154166219
  11     0.021428905943493
  12      -0.3823525475006
  13    -0.0049172436382206
  14    0.0057231690751273
  15    -0.0018488006145589
  16      0.40281713614178
  17     -0.30562741732705
  18    -0.0046240822293881
  19    0.0044485511898971
  20     0.045363246609036
  21     -0.38416510659999
  22     -0.01087765121221
  23    0.0046442144990521
  24    0.00034723669305501
  25    -0.069602781692485
  26      0.24652246454285
  27    -0.053550370562568
  28    -0.00087461226483191
  29    -0.097282313212907
  30    -0.010127977247525
  31     0.083383651508241
  32    -0.075729365459574
  33       1.2887137896667
  34      0.03747233676067
  35      -0.5757902269028
  36     0.019604192470413
  37     -0.26183154841636
  38     0.090028688463484
  39      0.43320851724771
 Sym= A
 Ene=    0.2957925098
 Spin= Alpha
 Occup=    0.00000
   1    -0.0063239112845098
   2     0.013783303290529
   3     0.093625111812271
   4    -0.038716834278438
   5     0.048790817341431
   6     0.056870335124406
   7    -0.012711012502307
   8     0.055834578104302
   9    -0.0054800852938629
  10    0.00027061845209141
  11    0.0014939717305498
  12     0.097270198081576
  13    -0.0027539368986966
  14    0.0016719800462622
  15     -0.01642775954082
  16    -0.039106217779394
  17    -0.026730520849289
  18      0.55811747183616
  19    -0.0015151118040956
  20    -0.015417071858832
  21      0.12498682247234
  22     0.003620533849974
  23    0.0010861837408636
  24    0.00031431875042443
  25    -0.028833847014174
  26    -0.058918835043563
  27     -0.43047725832326
  28     0.024709927457994
  29      -0.9391961329582
  30    -0.023971165782584
  31      0.91462804591978
  32     0.013108949883981
  33     -0.22732009417209
  34     0.047390454619781
  35      -1.0195596651857
  36     -0.05239377251191
  37       1.0977398873615
  38     0.010098314175432
  39     -0.27764141368997
 Sym= A
 Ene=    0.3319021429
 Spin= Alpha
 Occup=    0.00000
   1      0.02542961895139
   2    -0.095641147574978
   3     -0.21134059397969
   4     -0.18062898024838
   5    0.0016686722584106
   6    -0.024946139097489
   7     -0.18116895552566
   8     0.047759371809639
   9    -0.0085270751003763
  10    -0.0032048278542332
  11    -0.036419190115876
  12       1.6104978256191
  13    -0.045568632965526
  14     0.021598745371719
  15      6.8164097015e-05
  16      0.22811058121817
  17    -0.011557557375096
  18      0.07843585982078
  19    -0.010237343187898
  20       -0.105744638933
  21      0.93379580390883
  22     0.022274341025312
  23      0.01074316907549
  24    -0.0011255217943746
  25     -0.12865841102413
  26      0.20113637562839
  27     0.053009436961289
  28     0.035483682941127
  29     -0.88943105495737
  30      0.03672658196848
  31     -0.80648202672499
  32    0.0095547807614997
  33    -0.042251480204533
  34     0.029819471305342
  35     -0.64701891760004
  36     0.036964437575704
  37      -0.8149084062183
  38    -0.020106268989863
  39     0.087810522031892
 Sym= A
 Ene=    0.4399871511
 Spin= Alpha
 Occup=    0.00000
   1     0.040474919430687
   2     -0.12739248663704
   3     -0.51650844912862
   4    0.0027910437447596
   5      0.19808436896783
   6    -0.0053717867032318
   7     -0.16599686377246
   8      0.39438216737664
   9     0.041327780828304
  10    -0.0082628252264295
  11    -0.081077016510892
  12       2.0657409619172
  13     0.017684994795852
  14     0.048462466695095
  15    0.0035371242340583
  16      -1.2027420768044
  17     -0.82505259621118
  18    -0.035589411240462
  19    0.00022361448847727
  20    0.0033825908081356
  21      0.36048271012411
  22    -0.028599942745282
  23    -0.035945960209718
  24    -0.0004219875747494
  25     0.051729927808639
  26      0.42250489902702
  27    0.0016129879729659
  28    -0.0020485280313295
  29     -0.99507454919112
  30    -0.0046193172988689
  31      -1.0701447797786
  32    -0.026297321704765
  33      0.47979544835298
  34    -0.012914308442682
  35      -0.1888533230329
  36    -0.016577764107715
  37     -0.10508155383515
  38     0.029722343070321
  39       -0.160920277776
 Sym= A
 Ene=    0.4893632652
 Spin= Alpha
 Occup=    0.00000
   1     0.028456509008528
   2    -0.083497801651541
   3     -0.59274099588284
   4    -0.069452762054792
   5     0.066039675352818
   6     0.008534764118146
   7     -0.34638134513206
   8      0.17938736216168
   9    -0.031956124454829
  10    -0.0043728871462944
  11    -0.039725241939475
  12     -0.59095618628364
  13     0.037917338491553
  14    -0.051559007252245
  15    -0.022323377543049
  16     -0.80636407259686
  17       1.4808652137961
  18      0.97647266940017
  19    0.00016648322188381
  20    0.00049663580945662
  21     -0.17234027523426
  22     0.019040784899537
  23    -0.00080028061635195
  24    -0.0071251694666518
  25     -0.28362037250699
  26      0.13790056068752
  27       0.1525459371126
  28    -0.0074902344331303
  29     0.050547814174646
  30    -0.0061671834698969
  31       1.5102443053058
  32    -0.041784649414049
  33      0.86457901918354
  34    0.0078648087343069
  35    -0.055849580975212
  36     0.036476719682009
  37     -0.58172889814377
  38    -0.078977237240864
  39     -0.33928844187516
 Sym= A
 Ene=    0.5116301617
 Spin= Alpha
 Occup=    0.00000
   1    -0.015921519108259
   2     0.056769361926407
   3      0.17692145383472
   4     0.031636536787566
   5     0.024255280185968
   6      -0.1544581792705
   7      0.10405313496584
   8    -0.044161089568027
   9     -0.23347465288619
  10    -0.002236607340239
  11    -0.023748571015818
  12      0.68426251923077
  13    -0.020344041019087
  14     0.017612034591768
  15    -0.039617296246756
  16      0.39758496268518
  17     -0.46994459879829
  18       1.7944284036595
  19    0.0059348407415932
  20     0.059452159162986
  21     -0.64763692070105
  22    -0.013543171114895
  23     0.011260713311058
  24    -0.018949207126998
  25      0.39624308454854
  26     -0.26827693118273
  27      0.47771956560095
  28     0.010423147068053
  29      -1.7532704525327
  30    -0.00074957227563085
  31        1.001478955258
  32      0.01023518318156
  33     -0.42069407518042
  34    -0.041116915337406
  35       1.1857405870078
  36      0.02169888177263
  37     -0.36144175258346
  38    -0.027400890180109
  39      0.14455743142678
 Sym= A
 Ene=    0.5234178499
 Spin= Alpha
 Occup=    0.00000
   1     0.018555183995099
   2     0.035386773416252
   3     -0.69782675387965
   4      0.11571346374977
   5     0.090703738146008
   6    -0.056310122658241
   7     -0.34580806751235
   8     0.072700526665203
   9    -0.0067780862939326
  10    -0.0068202822539356
  11    -0.062513180515857
  12       1.0836405513378
  13    -0.0011545329409639
  14     -0.02698806869354
  15    -0.00067765274129209
  16    -0.0089695019575265
  17       1.5159966331698
  18     -0.10094305411187
  19    -0.0011542729271569
  20    -0.015086585431527
  21      0.40377086103678
  22    -0.075999222678991
  23     0.037520133809852
  24    0.0026538332795921
  25       2.2193665574972
  26     -0.69479256794363
  27    -0.070265610525342
  28    0.0041962279580034
  29      0.47383536591265
  30    0.0070234797029397
  31       0.2970281332629
  32    -0.019328658009121
  33      -1.8117283577142
  34     0.036615473403693
  35    -0.095307769073697
  36     0.030188924694407
  37     0.028573061001179
  38      0.14038559629008
  39    -0.031472561953767
 Sym= A
 Ene=    0.5324651557
 Spin= Alpha
 Occup=    0.00000
   1    -0.022444733628358
   2     0.040632894192281
   3      0.48153500553369
   4      0.03994473432174
   5      -0.1032594010195
   6    -0.060501504249394
   7      0.27948178835959
   8     -0.17667013578757
   9    -0.055401226905894
  10    0.0049479132447583
  11     0.047965832734585
  12      -1.4082735922389
  13      0.02561677798028
  14     0.008857323123145
  15    -0.0070270685958651
  16      0.25839865911812
  17     -0.67528701124425
  18      0.24999808183909
  19    -0.026732301314529
  20     -0.26760055007045
  21       3.1287971577639
  22    -0.013490484017603
  23     -0.05951288152403
  24    -0.0056439815320089
  25    -0.094247260157164
  26       1.2811371012308
  27      0.17972180267028
  28     -0.02121479669558
  29       0.1265503204129
  30    -0.026486593169354
  31      0.58873237683627
  32      0.02934485018593
  33     -0.33019407190431
  34    -0.0073867326716762
  35      -1.1966448610747
  36    0.0055830907996882
  37      -1.5618744613236
  38    -0.0097759354069795
  39      0.21967083764434
 Sym= A
 Ene=    0.5759931151
 Spin= Alpha
 Occup=    0.00000
   1     0.013818975019457
   2     -0.04488818311984
   3    -0.081710952187635
   4     0.026708078207884
   5    -0.066788311677858
   6      0.12551677477536
   7    -0.0036173546900583
   8     0.011104686841848
   9     0.086990255422169
  10    -5.104381911384e-05
  11    -0.00096999448243918
  12     -0.26248742984686
  13    0.0067416129508951
  14    -0.0035770290096816
  15     0.036773165757065
  16     -0.26451449225099
  17    -0.084486913810813
  18      -1.5434910827102
  19    -0.0026020557458292
  20    -0.025733389754744
  21      0.29623678515449
  22    0.0029482723927938
  23     0.010310685655186
  24    -0.093509387226558
  25     -0.14773942643094
  26     -0.30855624426224
  27       2.3132045907981
  28     0.027300633643196
  29      0.60326127818233
  30    -0.030886085385408
  31     -0.66197866868788
  32    -0.0026051869006937
  33    -0.067435121511734
  34     0.028647136644242
  35       1.3823378478541
  36    -0.025977598815959
  37      -1.2383311925972
  38       0.1796917523497
  39    -0.0096896224480161
 Sym= A
 Ene=    0.6237561705
 Spin= Alpha
 Occup=    0.00000
   1    -0.0080001116978292
   2     0.042464448326618
   3    -0.023096120039653
   4      0.16019487633904
   5     0.055135070458418
   6    -0.020133685351307
   7      0.15387382491125
   8      0.12536690087123
   9    -0.028717723306488
  10    0.00062824008717298
  11    0.0036700176184521
  12      -2.2869489038672
  13      0.06858807335276
  14    -0.0075192351833954
  15    -0.007488599961497
  16      -1.8938023467203
  17      -1.1639352999096
  18      0.30146252940721
  19    -0.021138707380027
  20     -0.20858358738466
  21       2.8626529042538
  22     0.018588602713822
  23     0.055157561206922
  24     0.012463924972728
  25      -1.2384087072871
  26       -1.928200057676
  27     -0.29979080078629
  28    -0.011022869978356
  29     -0.43201756362564
  30    -0.0020693883162684
  31     -0.13981967608553
  32    0.00084553562626624
  33     -0.67484885473112
  34    0.00095015020958572
  35      0.23027653951317
  36     0.011346621211407
  37      0.50374699744541
  38    -0.015478691832173
  39    -0.019040121075418
 Sym= A
 Ene=    0.8599291423
 Spin= Alpha
 Occup=    0.00000
   1     0.014408568140019
   2     -0.10692205128998
   3      0.28370780667955
   4     -0.41030110144495
   5    -0.081869902366305
   6     -0.51986303279206
   7       0.5107958701445
   8     -0.21060731739526
   9      0.17275645265281
  10    -0.0035751184962062
  11    -0.045098185213539
  12     -0.40072954758344
  13     0.034624480442466
  14    -0.039705863136645
  15    -0.017971609291763
  16     -0.10008591220206
  17    -0.013145120063979
  18       0.1961882065474
  19    0.00063617810595756
  20    0.0077616117199823
  21    -0.015203515057955
  22    -0.0025850947950513
  23    0.0041811848805869
  24    0.00059165022543803
  25     -0.20276796689589
  26    -0.093490692374754
  27     -0.17648582686028
  28     0.014336059969741
  29     0.022557437042054
  30    -0.00013749838707608
  31      0.12526292177863
  32    -0.0045021664878987
  33     0.096608749467348
  34    0.0089868158417568
  35     -0.02205455042233
  36    -0.0066293387424426
  37      0.24575845947775
  38       1.0866011774533
  39     -0.96556607765709
 Sym= A
 Ene=     1.020822714
 Spin= Alpha
 Occup=    0.00000
   1     0.023970262883686
   2     -0.14466952619869
   3    -0.096209846160123
   4      -0.2417487752632
   5     -0.70770192678656
   6      0.50257424773156
   7      0.24038090031353
   8      0.98682919512462
   9     -0.78664491085692
  10    -0.0055142301755185
  11    -0.053432320322358
  12       0.3366772284694
  13    -0.0078034296523413
  14    -0.0050809118069838
  15     0.013873114233531
  16     -0.56788723701901
  17     -0.14766744717202
  18      0.73475750907888
  19    -0.0063351705263875
  20    -0.064227048666318
  21      0.48444630608736
  22    0.00028504244715707
  23    -0.0027263294940333
  24    0.0094228273995053
  25      0.23728425299065
  26     -0.38507701184083
  27     -0.42783177880707
  28     0.031111192065958
  29     -0.43767713096673
  30     -0.02984263511806
  31       0.2070404764543
  32     0.018885505739695
  33     -0.38322773208451
  34    -0.031662754732683
  35     -0.17652648144029
  36    -0.021585367278254
  37      0.30454212946287
  38      0.22316279869598
  39     -0.24081154958823
 Sym= A
 Ene=     1.069473045
 Spin= Alpha
 Occup=    0.00000
   1    -0.057682371510009
   2       0.4622838397049
   3     -0.29267955930702
   4     -0.76072289460921
   5      0.18407424016156
   6     0.045867786923623
   7       1.1929027952188
   8     -0.20227344783206
   9      0.13012764366346
  10     0.018111419414583
  11      0.17939538401968
  12        -1.14351613237
  13    0.0073739539505598
  14    -0.0090405046086303
  15    -0.0089831070753458
  16     -0.24667151891463
  17     -0.38145128545764
  18     -0.40187787424036
  19    -0.0083952802414766
  20    -0.081767153124047
  21      0.82066479081641
  22    -0.012442825208985
  23    -0.0031776242345526
  24    -0.0053294676221874
  25      0.23716538217855
  26      -0.4807722832081
  27      0.26890573433241
  28    -0.015361872436567
  29      0.22015015169733
  30     0.047117293522391
  31     -0.13351656778779
  32     0.034626867162881
  33     -0.50787018254634
  34    -0.031968886251685
  35       0.2264642853836
  36    -0.038531930959576
  37     -0.16942455047083
  38     -0.63315409431127
  39      0.86013512176911
 Sym= A
 Ene=     1.176707324
 Spin= Alpha
 Occup=    0.00000
   1    -0.0033707910995036
   2    -0.047257792017382
   3     0.075610968106327
   4     0.089412831089351
   5     -0.57750847206752
   6     -0.62725547530355
   7     -0.36000287583634
   8       1.3545868048944
   9       1.3962658388417
  10     0.024457838011142
  11      0.26238552912776
  12     0.063095021958209
  13    -0.053162233408441
  14     0.059692059512352
  15    0.0061894188024436
  16     -0.80936679693012
  17      0.15054475774708
  18     -0.73856505690365
  19    -0.0027512032184732
  20    -0.026884847992773
  21       0.2502040414138
  22    -0.0096079281612022
  23    -0.0041753253508339
  24    0.00081661486727914
  25    -0.025427304704441
  26     -0.41680371471165
  27      0.30791817862584
  28    -0.020573984766416
  29      0.39230357003988
  30     0.048206111698733
  31     -0.23083591256066
  32    0.0062740970044435
  33     -0.11281165517638
  34    -0.025958227238931
  35      0.27966503887218
  36    0.0043486364486688
  37      0.06249437609685
  38     -0.52491531291479
  39      -0.7062205023441
 Sym= A
 Ene=      1.47956159
 Spin= Alpha
 Occup=    0.00000
   1     0.024803123171602
   2     -0.89780877708755