[Molden Format]
made by pyscf v[1.7.5.1]
[Atoms] (AU)
O   1   8    -2.21324723709060     0.56635091953215     0.00000000000000
GHOST-C   2   0    -0.08749431956736    -1.07052984956611     0.00000000000000
GHOST-C   3   0     2.30074155665796     0.50417893003396     0.00000000000000
GHOST-H   4   0    -0.18103576273333    -2.29034806297285     1.66654946925393
GHOST-H   5   0    -0.17990192705859    -2.25595504750577    -1.69054899103590
GHOST-H   6   0     3.97787349220946    -0.70297811833820    -0.03344815240480
GHOST-H   7   0     2.34817368238455     1.75876810413270    -1.64481761882143
GHOST-H   8   0     2.38407847875128     1.71058008795629     1.67921063428851
H   9   1    -2.13368976724641     1.58056693058622     1.53048918828524
[GTO]
1 0
 s    6 1.00
             5484.6717   0.001831099805527
             825.23495   0.013950098518422
             188.04696    0.06844509273075
               52.9645    0.23271427528445
              16.89757    0.47019295006289
             5.7996353    0.35852086192309
 s    3 1.00
             15.539616   -0.11077750382508
             3.5999336   -0.14802630511126
             1.0137618     1.1307670390447
 s    1 1.00
             0.2700058                   1
 p    3 1.00
             15.539616   0.070874299543311
             3.5999336    0.33975279781076
             1.0137618    0.72715859531445
 p    1 1.00
             0.2700058                   1

2 0
 s    6 1.00
             3047.5249  0.0018347001629433
             457.36951    0.01403730124668
             103.94869   0.068842606114048
             29.210155    0.23218442062076
              9.286663    0.46794134155879
              3.163927    0.36231203217765
 s    3 1.00
             7.8682724   -0.11933240861517
             1.8812885   -0.16085421161283
             0.5442493     1.1434564825515
 s    1 1.00
             0.1687144                   1
 p    3 1.00
             7.8682724   0.068999095584993
             1.8812885    0.31642397975315
             0.5442493    0.74430825237435
 p    1 1.00
             0.1687144                   1

3 0
 s    6 1.00
             3047.5249  0.0018347001629433
             457.36951    0.01403730124668
             103.94869   0.068842606114048
             29.210155    0.23218442062076
              9.286663    0.46794134155879
              3.163927    0.36231203217765
 s    3 1.00
             7.8682724   -0.11933240861517
             1.8812885   -0.16085421161283
             0.5442493     1.1434564825515
 s    1 1.00
             0.1687144                   1
 p    3 1.00
             7.8682724   0.068999095584993
             1.8812885    0.31642397975315
             0.5442493    0.74430825237435
 p    1 1.00
             0.1687144                   1

4 0
 s    3 1.00
             18.731137    0.03349459952309
             2.8253937    0.23472694665786
             0.6401217    0.81375731841339
 s    1 1.00
             0.1612778                   1

5 0
 s    3 1.00
             18.731137    0.03349459952309
             2.8253937    0.23472694665786
             0.6401217    0.81375731841339
 s    1 1.00
             0.1612778                   1

6 0
 s    3 1.00
             18.731137    0.03349459952309
             2.8253937    0.23472694665786
             0.6401217    0.81375731841339
 s    1 1.00
             0.1612778                   1

7 0
 s    3 1.00
             18.731137    0.03349459952309
             2.8253937    0.23472694665786
             0.6401217    0.81375731841339
 s    1 1.00
             0.1612778                   1

8 0
 s    3 1.00
             18.731137    0.03349459952309
             2.8253937    0.23472694665786
             0.6401217    0.81375731841339
 s    1 1.00
             0.1612778                   1

9 0
 s    3 1.00
             18.731137    0.03349459952309
             2.8253937    0.23472694665786
             0.6401217    0.81375731841339
 s    1 1.00
             0.1612778                   1

[5d]
[7f]
[9g]

[MO]
 Sym= A
 Ene=    -19.43922652
 Spin= Alpha
 Occup=    2.00000
   1      0.99552424637277
   2     0.027626151681348
   3    -0.017896390454518
   4    0.0015154125637102
   5    -0.00037275193697837
   6     0.001778313968038
   7    -0.0039129550722936
   8    0.0015954388521983
   9    -0.0015286847021389
  10    0.00027552178952331
  11    0.0007821487511577
  12     0.010274184572719
  13    5.8035261043051e-05
  14    -0.00054097147788992
  15    -0.00042959340150637
  16    -0.0025003506620883
  17    0.0020046912887286
  18    0.00012423780785962
  19    -0.00027969186254102
  20    -6.2888675383885e-05
  21    -0.00045966069493267
  22    -0.0008559020253619
  23    0.00063917924275802
  24    5.6568910691611e-05
  25    -0.00042494329772478
  26    0.0011081533572374
  27    -6.5325020230789e-05
  28    9.3257347537034e-05
  29    -0.00062964846588085
  30    0.00080493967637717
  31    9.147145483593e-05
  32    -0.00092559801780526
  33    -0.00013424311927236
  34    0.00025015228943173
  35    -0.00018078924159096
  36    0.00050235614314974
  37    -0.00031087554339288
  38    0.00046917187532657
  39    0.0026100089017163
 Sym= A
 Ene=    -1.164668768
 Spin= Alpha
 Occup=    2.00000
   1     -0.21452403654727
   2      0.46976710943905
   3      0.51704197743655
   4     0.078042002260238
   5     0.014084851005615
   6     0.079297379021529
   7     0.056325308450634
   8    -0.0054408365478863
   9     0.033971284497755
  10    -0.008495256368872
  11     0.053035259766386
  12    -0.050659898601914
  13     -0.10037268233597
  14     0.081998448594119
  15    0.00042768742257388
  16      0.01085953710371
  17    -0.0045199051519442
  18    -0.00082796595697449
  19     0.002008516397083
  20    -0.0083527697818796
  21    -0.016552750683769
  22     0.022465533044988
  23    -0.0043957821762291
  24    -0.0017167249518243
  25    0.0099714568615492
  26    -0.0017323838993229
  27    2.3386288831342e-05
  28    -0.014923573485661
  29    -0.0099884726653931
  30    -0.012926386964933
  31    -0.0072753347688343
  32     0.016059810665333
  33     0.016020588272926
  34    -0.0066967330781071
  35    -0.00089343453386243
  36    -0.0085849895073977
  37    -0.00065639612551414
  38      0.14277353207402
  39    -0.0065430232925685
 Sym= A
 Ene=   -0.6081240849
 Spin= Alpha
 Occup=    2.00000
   1      0.02893341056875
   2    -0.066600719919622
   3     -0.12811150917292
   4     -0.10498062763969
   5      0.31747204098231
   6      0.39100000178495
   7    -0.030950772920692
   8      0.14660856954574
   9      0.21587098717366
  10     0.013758442469321
  11    -0.099852089413049
  12    -0.071405570978295
  13      0.16561140129655
  14      -0.1268743316948
  15    0.0021898066905341
  16     0.057808913110329
  17    -0.037631705788129
  18     0.025332005865893
  19    -4.3760255289693e-06
  20    -5.1763170826082e-05
  21    -0.010864254951718
  22    -0.0086496521949293
  23    0.00012196624308727
  24    -0.0094755194658884
  25    -0.012941060386104
  26    0.0079563878695518
  27    -0.028024806446031
  28    -0.0014673784331692
  29    -0.011114801870957
  30     0.043127864400163
  31     0.084149865087124
  32    -0.011471392174808
  33    -0.0090348858964482
  34    0.0068966416130944
  35    -0.0089269401689712
  36    0.0026608870765606
  37     0.025064789462331
  38      0.29794044082314
  39      0.16725923484862
 Sym= A
 Ene=   -0.5198368569
 Spin= Alpha
 Occup=    1.99995
   1     0.066475930298393
   2     -0.15404832885123
   3     -0.26726507017828
   4      0.42600086403477
   5     -0.17643530779613
   6      0.30561751531095
   7      0.28791210576579
   8     -0.11819019328372
   9      0.21708769817549
  10    -0.017663757219679
  11      0.11924015272802
  12     0.096522870238571
  13     -0.19755796393454
  14       0.1585053137356
  15    0.0022602396222805
  16    -0.021034520808756
  17     0.078307250391533
  18     0.085211277527133
  19     0.003626066609073
  20    -0.0099864416177883
  21    -0.088666292418486
  22     0.033990262059674
  23    0.0077818786121965
  24    -0.0072091424632161
  25     0.050458301323692
  26     0.028259018937562
  27    -0.052027034169233
  28     -0.03869187623838
  29     -0.10355127003586
  30     0.019043618234993
  31     0.061341181108438
  32     0.028337761550153
  33     0.044900316438123
  34     -0.01026496668599
  35    -0.045055536748565
  36     -0.01117955071743
  37     0.021793840400538
  38     0.058210671395846
  39     0.036969859092627
 Sym= A
 Ene=   -0.4842110518
 Spin= Alpha
 Occup=    1.99969
   1    0.0094583166091799
   2    -0.024413742750134
   3    -0.0032174843148129
   4      0.37161595028333
   5      0.44698242075597
   6     -0.27961104902882
   7        0.290604492018
   8      0.33021366478337
   9     -0.21654986816727
  10    -0.00081217938648979
  11    0.0031879904442966
  12    0.0017902514332467
  13    0.0068426510542314
  14     0.017436341721832
  15    -0.0051981166308707
  16     0.067282265761946
  17    0.0069107540784415
  18    -0.034341279345696
  19    0.0055060369166833
  20    -0.033462638165512
  21     -0.14467784546737
  22     0.049719058143125
  23      0.01629216059229
  24    0.0033801810842577
  25    -0.0055886884710679
  26     0.082027953976834
  27     0.032975688829227
  28     0.046556183807163
  29     0.090283651752886
  30    0.0007454684896777
  31    -0.0063937893188678
  32     0.022596785674689
  33     0.098931465564921
  34    -0.010398900802856
  35     0.025083370940958
  36    -0.011999958268262
  37    -0.014314441136426
  38     0.012489580430369
  39    0.0075239836945071
 Sym= A
 Ene=   -0.1371210396
 Spin= Alpha
 Occup=    0.00037
   1     0.056498056786339
   2    -0.097167221327903
   3      -0.7352779669121
   4    -0.019147181525898
   5     -0.15271395908141
   6       -0.226563597908
   7    -0.086352850041958
   8     -0.23873147799807
   9     -0.32763372285205
  10    0.0075244960025172
  11     0.058131034260001
  12     -0.41125124954715
  13     0.012439926174286
  14    -0.016389175755549
  15    -0.0070348767109367
  16    -0.095473627634209
  17       0.2807946920457
  18       -0.106431848759
  19    0.0084641656915441
  20     0.086662034390908
  21     -0.68373135422091
  22    -0.011912602901298
  23      0.01309180841935
  24    0.00040537208732192
  25     -0.16073996005086
  26      -0.2428283416932
  27    -0.033217861498503
  28    0.0026275124021696
  29      0.52770417191469
  30    0.0094182849897879
  31      0.30555594323302
  32    -0.0079061782457263
  33      0.31536946893845
  34    0.00037443964832793
  35      0.35760447865431
  36    0.0050082974450911
  37      0.55067673098331
  38      0.15271040501844
  39       1.0370898081997
 Sym= A
 Ene=   0.06503709871
 Spin= Alpha
 Occup=    0.00000
   1    -0.016871144528336
   2    -0.049044290207313
   3      0.37067195726289
   4     -0.13366555425137
   5       0.1849869005896
   6      0.14517092233309
   7     0.043024928681083
   8      0.14791364539407
   9      0.18769747571827
  10     0.010024541165138
  11     0.054895387737541
  12       0.6563139389922
  13    0.0045757721784381
  14    0.0047786084980925
  15     0.009430432111151
  16      0.12943568568525
  17     -0.26838635552877
  18     0.094869934913149
  19    -0.006046478475721
  20    -0.051051954709176
  21       0.5495854329962
  22    -0.012336064201781
  23    0.0010479089450245
  24    0.0012238499144975
  25     0.029685327079371
  26     0.071090983111361
  27    0.0084569230677687
  28    -0.0059728287758972
  29    -0.014773020036296
  30    -0.016725663718633
  31      0.10235284330801
  32    -0.016698945130053
  33      -0.1843323663251
  34    0.0014593393559498
  35    -0.022236409019449
  36    -0.00027047376970606
  37     -0.19263667669117
  38     -0.12489377027497
  39     -0.58785117077393
 Sym= A
 Ene=    0.1511973672
 Spin= Alpha
 Occup=    0.00000
   1    -0.018480008227663
   2     0.079910302396107
   3      0.14097515522786
   4    -0.027851244236755
   5    -0.031214683510698
   6        0.100669217461
   7      0.00528192990308
   8     0.006284988080701
   9     0.058460333596895
  10    -0.0023052732269588
  11    -0.0098885267673386
  12     -0.12426313035059
  13    -0.0014442504099741
  14    -0.0039649965492153
  15    0.0071273420210107
  16      0.11874733771774
  17      0.16026804077376
  18    -0.046870409773623
  19     -0.01027598782789
  20     -0.10446780819985
  21      0.29336548939061
  22    -0.0074429785070311
  23    -0.013915794967135
  24    -0.00025922802089722
  25     0.087602988555987
  26      0.10574019401114
  27     0.021146253333346
  28     0.012498050296335
  29     -0.19327627885816
  30    0.0087732602127383
  31     -0.19523295380459
  32    -0.013688517022501
  33      0.32952195175119
  34    -0.029294864482343
  35      0.29993721360619
  36    -0.026565173355576
  37      0.20149180278628
  38    -0.086714408356976
  39     -0.19378935176783
 Sym= A
 Ene=    0.2109474406
 Spin= Alpha
 Occup=    0.00000
   1     0.010559411013125
   2    -0.040665762348617
   3    -0.049281186100048
   4     0.036740115608613
   5    -0.054768207229859
   6     0.064267758878064
   7    0.00015862831160822
   8    -0.047610782944122
   9    -0.050199216628401
  10    -0.0011624499625139
  11    -0.010292320554321
  12     -0.11463513264417
  13    -0.00074918557026734
  14    0.0019499705995656
  15     0.006570914344323
  16    -0.0018584212819283
  17    -0.055090730787666
  18     -0.45225667420877
  19    0.0013419787039924
  20     0.011869923519013
  21    -0.097747002622472
  22    -0.0016676029248317
  23    -0.0015345275359834
  24     0.021347785208876
  25    0.0018867348319248
  26     0.027753157623721
  27     -0.10413704750169
  28     0.026132360394431
  29     -0.31729729799207
  30    -0.044733096510112
  31      0.49639743298224
  32    -0.00083469580502024
  33      0.13301982751618
  34    -0.026317943008884
  35      0.22956637737239
  36     0.023505943269743
  37     -0.25422151736006
  38      0.16143127627306
  39      0.10376892546849
 Sym= A
 Ene=    0.2591845255
 Spin= Alpha
 Occup=    0.00000
   1    -0.0075541903626357
   2     0.071114297925404
   3    -0.012274152540258
   4      0.14049428461304
   5     0.048492461732986
   6    -0.019684508093556
   7    -0.0059562043065963
   8    -0.060832031952443
   9    -0.034890582092729
  10    -0.0061796274083228
  11    -0.026497082752484
  12     -0.21392249843047
  13    -0.028294726223051
  14     0.022044594743501
  15    2.6617214292482e-05
  16    -0.063850317454971
  17     -0.11004639487403
  18     0.015266756153417
  19    0.00021098375877717
  20    -0.016088049350373
  21      -0.1569304434056
  22    -0.020974262646396
  23     0.031986999826179
  24    -0.0049073404645341
  25      0.36861060436612
  26     -0.35239505069389
  27     0.021731017086041
  28    -0.002761226440459
  29      0.20553099504981
  30    -0.004875828869512
  31      0.06058166554628
  32    -0.041285907161551
  33      0.63564903423141
  34     0.016032376976274
  35     -0.16522882512745
  36    0.0054340494053765
  37    -0.092061331300078
  38     0.024005995729853
  39     0.090805843716145
 Sym= A
 Ene=    0.2957398659
 Spin= Alpha
 Occup=    0.00000
   1    0.0051090381020746
   2     0.011136906951996
   3     -0.14539009059606
   4     0.033572587708006
   5     0.015600734696036
   6     -0.03264920757616
   7    -0.046149742422931
   8    -0.031747839249013
   9    -0.055264253268145
  10    -0.0013449697537795
  11    -0.0095391842090516
  12    -0.090078846181878
  13    -0.002220720749605
  14    -0.0022815830895102
  15    0.0022237661187017
  16     -0.04804867509371
  17      0.11322680008966
  18      0.38602749561474
  19    0.00034587255016454
  20    -0.0011244250547588
  21     -0.16782951526671
  22    -0.0017602388845066
  23    0.0046936235373219
  24     0.031393125075868
  25     0.051378740112498
  26    -0.063997375181476
  27     -0.42462673694884
  28    -0.0038491714119396
  29      0.34732392586077
  30     0.017080139523024
  31     -0.18921950779787
  32    0.00074021942281846
  33    -0.0011936004018337
  34    -0.047295265797903
  35      0.69898569754239
  36     0.041189549207834
  37     -0.54428083053368
  38      -0.1123720316463
  39       0.2296278315701
 Sym= A
 Ene=    0.3589890681
 Spin= Alpha
 Occup=    0.00000
   1      0.01438546809328
   2    -0.070741842922341
   3    -0.047389131087446
   4     -0.10067094985182
   5     -0.14072684594644
   6    -0.067276225903358
   7    -0.027180334181262
   8    -0.039955467896905
   9    -0.041983507136283
  10     0.010297824755267
  11      0.10627694325463
  12    -0.0095790283189707
  13    -0.011669140703194
  14    0.0012334163422987
  15    -0.0065103046503575
  16      0.44467292915146
  17      0.44326236271071
  18    -0.014496033952283
  19    0.0040133542311294
  20      0.05656733621578
  21    -0.032742560293848
  22    0.0058572077316354
  23     0.035341850613203
  24    0.0043530530489971
  25     -0.33999494982964
  26     -0.43209260961222
  27    0.0022103172459229
  28     0.026850083735989
  29     -0.19321987114154
  30     0.035634639836838
  31     -0.16452442842866
  32    -0.0076813075289758
  33      0.19749222559095
  34     0.035234954677377
  35     -0.20795152457903
  36     0.046494041067923
  37     -0.36177069899075
  38    -0.0049820208795267
  39      0.25829670860208
 Sym= A
 Ene=    0.6872253304
 Spin= Alpha
 Occup=    0.00000
   1     0.019768586889141
   2      -0.0948964436325
   3      0.12971757920592
   4      -0.1735594419702
   5     -0.18469418589546
   6     -0.58679936924792
   7       0.2907619807301
   8     0.011889003440385
   9      0.17544749156338
  10     0.031731767385756
  11      0.32717778664323
  12      0.43809349279762
  13     0.010282657307622
  14    -0.015416574728674
  15     -0.02313336621652
  16      0.12750603404412
  17     -0.39555041327725
  18      0.27086354434612
  19     0.021096909906943
  20      0.23688597760104
  21      0.59590819331482
  22    -0.026823032850386
  23    0.0016067831855649
  24     0.017460462119363
  25       0.6391014589413
  26      0.26002083843543
  27     0.080439533512678
  28    0.0054533932693211
  29     -0.57533272932174
  30     0.026460883135952
  31     -0.17239589931699
  32    -0.025790067350405
  33     -0.52954473204163
  34     0.033502425455394
  35     -0.12340911138215
  36     0.044069395660926
  37     -0.48786628692523
  38      0.69959901796529
  39     -0.23078837291616
 Sym= A
 Ene=    0.8368838439
 Spin= Alpha
 Occup=    0.00000
   1    -0.034108316842147
   2      0.34562077478038
   3     -0.16511397484663
   4    -0.017376861874405
   5     -0.32572714990614
   6    0.0057663307998982
   7      0.12490998628781
   8      0.15993040742858
   9     -0.13851456990001
  10    -0.033214651224034
  11      -0.3087815310907
  12     -0.33608319979695
  13    -0.079471606222265
  14      0.10033864084993
  15     0.028849711989317
  16      0.44497059073154
  17     0.064794867050498
  18      0.71292204218091
  19    -0.0022047542518422
  20    -0.022103716707616
  21     0.051980460309111
  22     0.030069305182485
  23    0.0056741314258221
  24     0.007738132053185
  25    -0.015551537354661
  26      0.27870623982464
  27       1.2078033213288
  28    -0.072689212276958
  29     -0.30553122313647
  30     -0.05029521561758
  31       1.2851164870376
  32     0.056561075781715
  33    -0.042176658169907
  34    -0.0029915825735678
  35      0.92678597889637
  36    -0.038755509159752
  37      -1.2787664158618
  38    -0.011440810515626
  39      0.07618930439661
 Sym= A
 Ene=    0.8700577175
 Spin= Alpha
 Occup=    0.00000
   1    -0.039923361908476
   2      0.49313382665586
   3     -0.28994919001576
   4     -0.17717101451244
   5     -0.19551511735013
   6     -0.05332103146378
   7      0.35550080714979
   8     -0.16502070403142
   9     -0.12029567968952
  10    -0.053012026002683
  11      -0.5345928090195
  12     -0.19203942621467
  13    -0.021174992424954
  14     0.025998010292069
  15    -0.022700538710292
  16      0.22086041214776
  17    -0.010974707860224
  18     -0.31011242324749
  19    -0.014977483585792
  20     -0.16181945383941
  21      -0.1663218777794
  22     0.033930387951696
  23    0.0045991739459906
  24    -0.011530083975149
  25     -0.29653631953026
  26     -0.28690271686804
  27        -0.64290317584
  28    -0.035941341615547
  29      0.77385914676858
  30    -0.064831442223643
  31     -0.27264243655948
  32     0.027653423227246
  33      -0.1208421513104
  34    -0.0096769146103314
  35     -0.29257533735514
  36    -0.0051978853072218
  37      0.86838072634612
  38      0.74719354441423
  39     -0.59090033331042
 Sym= A
 Ene=    0.9317237367
 Spin= Alpha
 Occup=    0.00000
   1    -0.031345522855829
   2      0.41076915137143
   3     -0.13605721087455
   4      0.10819950189235
   5     -0.20030864207397
   6    -0.049542204212658
   7     -0.22479827335132
   8      0.17535836135533
   9      0.10382837587811
  10     0.069490181172547
  11      0.73102179350032
  12     0.069321523502661
  13     -0.22262399519721
  14      0.10934814380516
  15    -0.0092712460611243
  16      0.75584698890911
  17      -0.2621448477287
  18     -0.11360300629707
  19    -0.055080655116559
  20     -0.58320977077694
  21      -0.7156989403245
  22    -0.0075548860055785
  23    -0.039325032298663
  24    0.00017847038305862
  25      0.21705889223184
  26    -0.045315728093778
  27     0.066062145009228
  28    0.0088676122946949
  29     -0.17934439658153
  30     0.033148958965635
  31     -0.25095678562733
  32     -0.12693271701025
  33    -0.037044522876307
  34    -0.066413508108576
  35      0.58993187602182
  36    -0.042679099150645
  37      0.46714596733233
  38     -0.11532626540853
  39      0.19653871829318
 Sym= A
 Ene=    0.9665890478
 Spin= Alpha
 Occup=    0.00000
   1     0.011505599862212
   2     -0.13585223893834
   3       0.2118013920454
   4      0.09290993786066
   5     -0.70411726419669
   6      0.35996549901855
   7    -0.068099221140576
   8      0.98086981674726
   9     -0.29586302017158
  10     0.017471404737404
  11      0.22862073030195
  12     0.021378205798551
  13     -0.13957806591616
  14       0.1527766491474
  15    -0.040113392354106
  16     -0.02334067922734
  17     -0.42401007885802
  18     -0.20022282574859
  19     0.033278472287171
  20      0.36119502279338
  21      0.37357081943934
  22     0.014864866994163
  23    0.0055512542296891
  24    -0.021964058191118
  25      0.22116633738016
  26      0.20898602342276
  27     -0.41903806342332
  28    -0.042726465991051
  29      0.42436665742774
  30     -0.06133577102765
  31     -0.31386717253273
  32      0.06356308219994
  33     -0.29983553664789
  34     0.024392065510053
  35     -0.66925073788017
  36     0.019984437192575
  37      0.12974034016971
  38     -0.19804111932235
  39     0.094745868369455
 Sym= A
 Ene=     1.022670816
 Spin= Alpha
 Occup=    0.00000
   1    -0.056977327534228
   2      0.45189037290076
   3     -0.18347241120015
   4      0.18442742727417
   5     0.043940139261773
   6     -0.52164478411671
   7     -0.12729845544448
   8      0.17010503227419
   9       0.9686300006763
  10    -0.016334035072257
  11     -0.13473110862253
  12     -0.16279381459333
  13     -0.11076985452982
  14      0.13020153564653
  15     0.044426060386397
  16       0.1316413694395
  17     -0.18943181512138
  18     -0.19203446370608
  19     0.024383053231673
  20      0.24734076454888
  21      0.22859493758924
  22      0.04215191479909
  23    0.0018034432675482
  24     0.004531551642577
  25    -0.095336967937939
  26     0.063547281658536
  27     -0.64407426824804
  28    -0.039729353266757
  29     0.091862282105161
  30     -0.08178785560464
  31      0.24865505409935
  32     0.072689292195938
  33     -0.22788037080161
  34    -0.025915892878982
  35     -0.64110715980438
  36     0.076268654497359
  37       0.3875107464712
  38     -0.72493082224329
  39      0.25977016058016
 Sym= A
 Ene=     1.056349802
 Spin= Alpha
 Occup=    0.00000
   1    -0.022047894321181
   2      0.16175540113341
   3     -0.23956327064638
   4      -0.8151704424625
   5     -0.11987234351116
   6    -0.027898520877801
   7      0.89881570293806
   8      0.36377863940724
   9      0.23234171287628
  10     0.013521129343767
  11     0.087988557583121
  12    -0.099405829739709
  13      0.17293814572474
  14    -0.098268414958899
  15     0.030953732225737
  16      -0.4787613130312
  17     0.056927783245616
  18     -0.02545662837347
  19    -0.0062733183033695
  20    -0.036093668687977
  21     -0.16821598614032
  22     -0.11916197037724
  23    0.0075800047996822
  24    -0.0026826354673607
  25      0.10280054832114
  26      0.23341855376013
  27     -0.18643842373591
  28      0.08906416179942
  29    -0.061175301538539
  30     0.045149814232607
  31     0.087323745712066
  32    -0.028661264390058
  33      0.57639627165173
  34    -0.043062807171209
  35     -0.31432135199574
  36    -0.027704106057823
  37    -0.0075501938339534
  38     -0.45148660520978
  39      0.21655838535695
 Sym= A
 Ene=     1.409651253
 Spin= Alpha
 Occup=    0.00000
   1    -0.028765491794398
   2      0.58399509054304
   3      -1.0406464821875
   4     -0.20605522454024
   5      0.30373870622498
   6      0.35012731873909
   7      0.33217356533185
   8     -0.55054892010139
   9     -0.73749810357852
  10     0.015115343523211
  11      0.14212745202426
  12     0.071498149196649
  13     0.080873380918331
  14      0.07193599954488
  15    -0.097794204994267
  16      0.38628128928799
  17       0.6605582038595
  18      0.19678222057552
  19     0.039543387740325
  20      0.40388598448621
  21     -0.37415899912717
  22     0.051420594585114
  23    -0.093861801926776
  24    -0.020034060380623
  25       1.4392643557945
  26     -0.52899902261839
  27    -0.037124303005034
  28     -0.16268840803988
  29        0.343304390366
  30      0.13106982797156
  31      0.24645706244383
  32     -0.08393184656305
  33       -1.397256227276
  34    -0.0014910336671435
  35      0.29279377378643
  36     0.026997864070082
  37      0.14590126003073
  38     -0.11067122456114
  39       1.0568488764441
 Sym= A
 Ene=     1.734177864
 Spin= Alpha
 Occup=    0.00000
   1     0.034024939320334
   2     -0.55659547361564
   3      0.57073011938187
   4     0.014176639688982
   5    -0.094162993292305
   6     -0.17024451162067
   7     -0.26182828528318
   8      0.20137862393975
   9      0.43004522232329
  10    -0.023669890213033
  11     -0.24222263842615
  12      0.51895235415284
  13      0.18631843336676
  14      0.21181231457524
  15      0.11670752188944
  16      0.37987573645272
  17       1.1978060723609
  18     -0.13079121640579
  19    -0.055430249411408
  20     -0.55369607025363
  21      0.61755671316983
  22    -0.038060613195672
  23    0.0033425437321791
  24      0.02971119635894
  25       1.3338256646304
  26      0.32446273548838
  27      -0.2451433686115
  28      0.13351244896595
  29       0.5921581661926
  30      -0.1201002805998
  31       0.6585858715165
  32     -0.42010926259085
  33     -0.62483200425613
  34     -0.37642527421154
  35     -0.47300508907942
  36    -0.078674472499528
  37     -0.18634355857788
  38    -0.017488074754869
  39     -0.58342280519129
 Sym= A
 Ene=       1.8250025
 Spin= Alpha
 Occup=    0.00000
   1     0.021007566858854
   2     -0.56053412199115
   3      0.72833648723732
   4     -0.15506963835596
   5     -0.12843259305426
   6    -0.068991748570807
   7      0.48455294903605
   8      0.43894278299908
   9      0.19727040361532
  10     -0.07072325340005
  11     -0.70407326166663
  12       1.1423924298286
  13     0.078478165459886
  14     -0.13359997803364
  15     0.089443097807085
  16     -0.57688991207209
  17     -0.94268549935468
  18      0.26568676916055
  19    -0.029197217559819
  20     -0.28664465491842
  21      0.68505145258812
  22     0.069767890732777
  23     -0.23887719273668
  24      0.06166972235764
  25      0.15258614238836
  26     -0.85184461550441
  27      -0.2012404882435
  28     -0.58680462309816
  29     -0.77985926527911
  30     -0.38439183736705
  31     -0.42463453528356
  32     -0.10557558491031
  33     -0.83451695907507
  34     -0.10321472205642
  35      0.45009051310485
  36     0.017103014397214
  37       0.5184803155213
  38     -0.28039458655048
  39     -0.17086552670285
 Sym= A
 Ene=     1.889645996
 Spin= Alpha
 Occup=    0.00000
   1    -0.0052087698852774
   2      0.20731384206731
   3     -0.33001492089472
   4    -0.0049618797690111
   5     0.045885198468053
   6      0.11899877822907
   7     0.042674666789671
   8     -0.17128768245694
   9     -0.19580225867804
  10     0.016815275557168
  11      0.16836043889573
  12     -0.25060294663476
  13    -0.045510387417512
  14    -0.064316174343878
  15      0.28091739613285
  16     0.026429136869351
  17    -0.087054714398371
  18    -0.045663035860399
  19     0.019389234322853
  20      0.19238470571943
  21     -0.31975287640183
  22     0.055486033077439
  23    -0.053415489541474
  24      0.28679849461004
  25     -0.17876930101258
  26    -0.086554226060346
  27     -0.30503978355534
  28       0.4603247280635
  29     -0.36177558609927
  30     -0.36650412280417
  31      0.24366219023909
  32       0.1929344815436
  33    -0.023600273030218
  34      -0.6019909254523
  35      0.48659348242555
  36      0.71820029801503
  37     -0.24769999035646
  38      0.06342519069466
  39      0.32419135049952
 Sym= A
 Ene=     1.945830639
 Spin= Alpha
 Occup=    0.00000
   1    0.00041780346805225
   2    -0.072977505958926
   3      0.13209545348123
   4     0.071289778863535
   5     -0.10742740477987