[Molden Format]
made by pyscf v[1.7.5.1]
[Atoms] (AU)
GHOST-O   1   0    -2.21324723709060     0.56635091953215     0.00000000000000
C   2   6    -0.08749431956736    -1.07052984956611     0.00000000000000
C   3   6     2.30074155665796     0.50417893003396     0.00000000000000
H   4   1    -0.18103576273333    -2.29034806297285     1.66654946925393
H   5   1    -0.17990192705859    -2.25595504750577    -1.69054899103590
H   6   1     3.97787349220946    -0.70297811833820    -0.03344815240480
H   7   1     2.34817368238455     1.75876810413270    -1.64481761882143
H   8   1     2.38407847875128     1.71058008795629     1.67921063428851
GHOST-H   9   0    -2.13368976724641     1.58056693058622     1.53048918828524
[GTO]
1 0
 s    6 1.00
             5484.6717   0.001831099805527
             825.23495   0.013950098518422
             188.04696    0.06844509273075
               52.9645    0.23271427528445
              16.89757    0.47019295006289
             5.7996353    0.35852086192309
 s    3 1.00
             15.539616   -0.11077750382508
             3.5999336   -0.14802630511126
             1.0137618     1.1307670390447
 s    1 1.00
             0.2700058                   1
 p    3 1.00
             15.539616   0.070874299543311
             3.5999336    0.33975279781076
             1.0137618    0.72715859531445
 p    1 1.00
             0.2700058                   1

2 0
 s    6 1.00
             3047.5249  0.0018347001629433
             457.36951    0.01403730124668
             103.94869   0.068842606114048
             29.210155    0.23218442062076
              9.286663    0.46794134155879
              3.163927    0.36231203217765
 s    3 1.00
             7.8682724   -0.11933240861517
             1.8812885   -0.16085421161283
             0.5442493     1.1434564825515
 s    1 1.00
             0.1687144                   1
 p    3 1.00
             7.8682724   0.068999095584993
             1.8812885    0.31642397975315
             0.5442493    0.74430825237435
 p    1 1.00
             0.1687144                   1

3 0
 s    6 1.00
             3047.5249  0.0018347001629433
             457.36951    0.01403730124668
             103.94869   0.068842606114048
             29.210155    0.23218442062076
              9.286663    0.46794134155879
              3.163927    0.36231203217765
 s    3 1.00
             7.8682724   -0.11933240861517
             1.8812885   -0.16085421161283
             0.5442493     1.1434564825515
 s    1 1.00
             0.1687144                   1
 p    3 1.00
             7.8682724   0.068999095584993
             1.8812885    0.31642397975315
             0.5442493    0.74430825237435
 p    1 1.00
             0.1687144                   1

4 0
 s    3 1.00
             18.731137    0.03349459952309
             2.8253937    0.23472694665786
             0.6401217    0.81375731841339
 s    1 1.00
             0.1612778                   1

5 0
 s    3 1.00
             18.731137    0.03349459952309
             2.8253937    0.23472694665786
             0.6401217    0.81375731841339
 s    1 1.00
             0.1612778                   1

6 0
 s    3 1.00
             18.731137    0.03349459952309
             2.8253937    0.23472694665786
             0.6401217    0.81375731841339
 s    1 1.00
             0.1612778                   1

7 0
 s    3 1.00
             18.731137    0.03349459952309
             2.8253937    0.23472694665786
             0.6401217    0.81375731841339
 s    1 1.00
             0.1612778                   1

8 0
 s    3 1.00
             18.731137    0.03349459952309
             2.8253937    0.23472694665786
             0.6401217    0.81375731841339
 s    1 1.00
             0.1612778                   1

9 0
 s    3 1.00
             18.731137    0.03349459952309
             2.8253937    0.23472694665786
             0.6401217    0.81375731841339
 s    1 1.00
             0.1612778                   1

[5d]
[7f]
[9g]

[MO]
 Sym= A
 Ene=    -10.26260138
 Spin= Alpha
 Occup=    2.00000
   1    -1.4978749891188e-05
   2    -0.00045633234127801
   3    0.0027591265084659
   4    -0.00027155417805971
   5    0.00022771190666243
   6    4.5587641262149e-05
   7    0.0011243244862238
   8    -0.00076778636056039
   9    -0.00028693537650387
  10      0.99590360463097
  11     0.032801166886225
  12    -0.030175772609114
  13    0.0037458877358404
  14    -0.0029562279214446
  15    2.0654279185725e-05
  16    -0.0042143334192908
  17    0.00058881508691197
  18    5.0091048333528e-05
  19    0.0015647498675444
  20    -0.0012142130813095
  21    0.0086200859375055
  22    0.0004253686592496
  23    0.00035791712764318
  24    -3.3615426659533e-06
  25    -0.0039308985032906
  26    -0.0028900030786939
  27    2.4557617061759e-05
  28    -0.00040971240329094
  29    0.0058086660547201
  30    -0.00038078436480866
  31     0.005822683147095
  32    -0.00031474424572142
  33    0.0004692830884079
  34    -0.00030700375784731
  35    0.00032653047782757
  36    -0.0002811702081844
  37    0.0002061888186518
  38    7.198288117246e-05
  39    0.00057722886143076
 Sym= A
 Ene=    -10.20263084
 Spin= Alpha
 Occup=    2.00000
   1    -3.4590116783577e-05
   2    -0.00044030662480273
   3    0.00065779940912182
   4    -0.00011310376142397
   5    -7.2291853858741e-06
   6    -1.88542774817e-05
   7    0.00037799345845828
   8    0.00011900139671698
   9    0.00021674280699833
  10    -0.0016141621851213
  11    -0.0011895959302982
  12    0.0073662972003989
  13    -0.00036551140183957
  14    -0.00037391683544223
  15    -3.548848941525e-06
  16    0.0034738036925948
  17    0.0022701712511512
  18    -9.969383405661e-05
  19      0.99537052137146
  20     0.036370442177533
  21    -0.031932162635642
  22    0.00013846118209568
  23    -2.6605441112595e-05
  24    -5.7863932879915e-06
  25    0.0013852847892536
  26    0.00067367274675307
  27    4.4894277053172e-05
  28    -0.00022737081794348
  29    0.00034213800587598
  30    -0.00025778064251052
  31    0.00029067733107557
  32    -0.00051262079874868
  33    0.0054606488332773
  34    -0.00042227656731072
  35    0.0056013283581892
  36    -0.00043836979296325
  37    0.0055857230458639
  38    -0.00029165134829325
  39    -7.2753762640785e-05
 Sym= A
 Ene=   -0.7599609866
 Spin= Alpha
 Occup=    2.00000
   1    0.00057637333679004
   2    0.0058145726800869
   3    -0.037217955725792
   4    -0.00020078040222909
   5    0.00031821091495192
   6    0.00010228500292934
   7    -0.019310291393473
   8    0.0094322714440282
   9    -0.0016072175790466
  10     -0.12319426984905
  11      0.22697775095104
  12      0.21741527892118
  13      0.14278799683325
  14    -0.028710568419874
  15    -0.00041702973719399
  16     0.018505147403238
  17    -0.013501373568397
  18    0.00085360906154934
  19     -0.16766569734388
  20      0.31356030326945
  21       0.3026235175075
  22    -0.035732372454537
  23    -0.044859496234519
  24    -0.00018272847060601
  25    -0.00025314602343939
  26    -0.014624438319668
  27    -0.0006760816566934
  28     0.079104179492005
  29     0.010388552079891
  30     0.079371598319192
  31     0.011079286172078
  32      0.10423128672774
  33     0.015447815399608
  34     0.092761971160156
  35     0.014927944508102
  36     0.092832708294933
  37     0.015263965985607
  38     0.002307577741283
  39    0.0004440766125164
 Sym= A
 Ene=   -0.5999105924
 Spin= Alpha
 Occup=    2.00000
   1    0.00044424894370927
   2    0.0043465115464793
   3    -0.036020661210435
   4    -0.00036657553402878
   5    0.00013927474507988
   6    -9.1455545665238e-05
   7    -0.015812043613901
   8     0.019996530689479
   9    0.00097759119440758
  10     -0.13630181387303
  11      0.25274538127324
  12      0.34154145925367
  13     0.049416797221418
  14     -0.18654751711019
  15    -0.00051387396819966
  16     0.029721597694181
  17    -0.046793068727327
  18    4.3080578805768e-05
  19      0.10778809984228
  20     -0.20499475947374
  21     -0.28002329706105
  22     -0.11530517498865
  23     -0.11252323542982
  24    -0.00014643571188551
  25    -0.031101075819765
  26    -0.019554297203855
  27    -0.00031571780299846
  28      0.15746570661395
  29     0.061325066051419
  30       0.1561531666224
  31     0.060636697854194
  32    -0.098694453084494
  33    -0.030509744859003
  34     -0.11440267532567
  35    -0.045421761787498
  36     -0.11420204219323
  37    -0.044486574778685
  38    0.00031868734189791
  39    -0.0034069271728875
 Sym= A
 Ene=   -0.4377000198
 Spin= Alpha
 Occup=    2.00000
   1    0.00017071929834259
   2    0.0018783890784405
   3    -0.0070850133557966
   4    -1.0547780997947e-05
   5    0.00036333760987254
   6    0.00080231947311183
   7    0.00095271583441935
   8    -0.0053820929045468
   9    -0.023856294812074
  10    1.578323374263e-05
  11    0.00079700832719215
  12    -0.0018385514892968
  13    -0.0011858245208664
  14    -0.0021636600064265
  15      0.30119937291084
  16    0.0029314453890479
  17    -0.0022577640553558
  18     0.096013687930706
  19    -0.00011993613587492
  20    -5.2999138092227e-05
  21    0.0012474961259654
  22    0.0021134029369107
  23    0.00011911400324405
  24      0.33068824677346
  25    0.0014457817871716
  26    0.0012379707204984
  27      0.19152323438997
  28      0.16188066187679
  29       0.1348331464793
  30     -0.16150864809595
  31     -0.13533093064445
  32    -0.0022342094031377
  33    -0.0017903896490089
  34     -0.15712946135996
  35    -0.095621389490021
  36      0.16082394162659
  37     0.095573074137315
  38    0.0046742211860367
  39     0.011845544982137
 Sym= A
 Ene=    -0.408056663
 Spin= Alpha
 Occup=    2.00000
   1    -0.00082259176327746
   2    -0.0081829851360255
   3     0.062277474129032
   4    0.00073890273262369
   5    -0.00051525370427245
   6    -0.00017228089337389
   7     0.031222719326234
   8    -0.015169727309247
   9    0.0026312410259976
  10     0.025159687941926
  11    -0.039089405337352
  12    -0.088266990588808
  13    -0.040713037011044
  14    -0.086940023319607
  15    -0.0002121187368836
  16     0.024946543247212
  17    -0.056906950402344
  18    -0.0015051590289986
  19    0.0040882016917196
  20     -0.01129155244043
  21    -0.016775102080096
  22      0.32763696361474
  23      -0.3002148020689
  24    -0.0019987000046951
  25      0.14314594160302
  26     -0.13861222537386
  27    -0.0001778445645538
  28     0.007433441957514
  29     0.010330296209512
  30    0.0066229033811103
  31    0.0090442942497907
  32      0.29383989054449
  33      0.24456527071783
  34     -0.11622466960831
  35    -0.089109320996397
  36     -0.11024367411298
  37    -0.084821804068891
  38    -0.0030824673750341
  39    -0.0019008726400647
 Sym= A
 Ene=   -0.3636098173
 Spin= Alpha
 Occup=    1.99998
   1    3.6040142032869e-05
   2    0.00025192070975259
   3    -0.004069672938832
   4    -0.00023506637565653
   5    -0.0004116454042724
   6    -0.00026354868231559
   7    0.0069850478602494
   8      0.02388173663243
   9    0.0036252563814804
  10    0.0088590052807393
  11    -0.029726743352388
  12     0.017555155503284
  13     -0.26038194469261
  14     -0.29361040436254
  15    0.0032867111296001
  16    -0.085432247943825
  17     -0.10832013544333
  18    -0.00028114492689887
  19     0.020050002285098
  20    -0.040786773482978
  21     -0.10188687292568
  22      0.27878632532746
  23      0.30769437975256
  24    -0.0070501603011589
  25      0.14238221037211
  26      0.18966922683739
  27    -0.002992009714525
  28      0.13436109588216
  29      0.13228350383839
  30      0.12567529855829
  31      0.12332433895783
  32     0.010096117223446
  33     0.030594286782254
  34      0.11658712195223
  35     0.097536426800536
  36      0.10662971145423
  37     0.089841798319595
  38    -0.0027213195849102
  39    -0.0061958799851652
 Sym= A
 Ene=   -0.3391614157
 Spin= Alpha
 Occup=    1.99993
   1    0.00014959634811559
   2    0.0016403916933135
   3    -0.0059932819174364
   4    7.7936677703531e-06
   5     0.000307998574911
   6    0.00076063417222495
   7    0.00045801543882247
   8    -0.0053235762603874
   9    -0.024224162258112
  10    -4.7779504544197e-05
  11    0.00097203626571776
  12    -0.0021403426886947
  13    0.0048073821076678
  14    0.0047887155440814
  15      0.31516236130538
  16    0.0045497124855097
  17    0.00094543699215833
  18      0.11993939569886
  19    -0.00061692014071069
  20    0.0010232312545266
  21    0.0034043259985213
  22    -0.0064478649372983
  23    -0.0048809068422751
  24      -0.3049691505097
  25    -0.0033370306790633
  26    -0.0020541948553549
  27     -0.14209684636268
  28      0.21048547425262
  29      0.21302586581083
  30     -0.21655284769625
  31     -0.21974161343877
  32    0.0028347901735706
  33    0.0022243255804679
  34      0.18293123379386
  35      0.17464559581486
  36     -0.18973860503669
  37     -0.18310815982125
  38    0.0051924924453663
  39    0.0093587338855264
 Sym= A
 Ene=    0.0705176902
 Spin= Alpha
 Occup=    0.00008
   1    -0.0048337971205064
   2    -0.047476355667991
   3      0.54975904206551
   4    0.0020009895463474
   5    -0.0047182607337682
   6    -0.0039624872410222
   7      0.24969524968116
   8     -0.14091778984869
   9     0.064017649925246
  10    0.0075909585190422
  11      0.06268341293814
  12      0.30787146154832
  13      0.23493987952654
  14      -0.2298950717918
  15    -0.0028438684610302
  16      0.83713120624424
  17     -0.68865217090134
  18    -0.018568973435465
  19    -0.020918491485198
  20      0.05000041522859
  21      0.17310085489465
  22      0.07671612344197
  23    0.0082882302678381
  24    0.0073722015099305
  25      0.36462183644594
  26      0.11584364164748
  27     0.026067050631153
  28    -0.009225964423738
  29     -0.43870073460536
  30    -0.019074498957251
  31     -0.45949559370315
  32     -0.12448597839522
  33     -0.65870824201178
  34     0.056822131108214
  35    0.00093023400370789
  36     0.051239242064044
  37    -0.042212018623773
  38    -0.0023689897549016
  39     -0.24611185315625
 Sym= A
 Ene=    0.1094303722
 Spin= Alpha
 Occup=    0.00001
   1    0.0029593296702842
   2     0.029465375944254
   3     -0.30860774828047
   4    -0.00048061284554266
   5    0.00021811297147206
   6    -0.0012960610338462
   7     -0.14662996716934
   8      0.15570777879057
   9     0.021374324716076
  10    -0.079297961325481
  11     0.060750082190044
  12       1.0794851128043
  13    -0.099079170253659
  14    -0.050731760543618
  15    0.0021436087454619
  16     -0.59126215865814
  17    -0.083506892803777
  18    0.00028866494432879
  19     -0.11231901973833
  20      0.12507934441118
  21       1.9301045730652
  22      0.12495913277303
  23     0.075878428216797
  24    0.0064692482926654
  25      0.32081816769463
  26      0.34623230670552
  27     0.020780599612673
  28    -0.00089953109271847
  29     -0.57340128006141
  30    -0.0032012529466263
  31     -0.56409646898473
  32     0.033380986219206
  33     -0.72335216781343
  34    -0.051627088860358
  35      -0.9797256371535
  36    -0.053028593795038
  37      -1.0130939396493
  38     0.010102216974762
  39     -0.11670496994672
 Sym= A
 Ene=    0.1535366924
 Spin= Alpha
 Occup=    0.00000
   1    0.0012609370730689
   2     0.012260230668379
   3     -0.15153256380263
   4    -0.0022802775845569
   5    0.00054946011555806
   6    0.0011711757526663
   7    -0.067888798796447
   8     0.062988733947353
   9    -0.022282982805603
  10     -0.13174537858061
  11      0.10698271418207
  12       2.2508832572783
  13     0.039486223513299
  14     -0.14958625976582
  15    -0.020042153359434
  16      0.17915585462326
  17     -0.34992033548104
  18    -0.025284054257658
  19      0.09580143171124
  20    -0.090057446120552
  21      -1.6463765970199
  22     -0.05731876641044
  23     0.054697696103324
  24     -0.05273415799318
  25    -0.063058871150997
  26      0.49609878555049
  27     -0.17446381093461
  28    -0.042314188540264
  29      -1.1163587763865
  30    -0.050232125405142
  31      -1.2278442855254
  32     0.062158207548353
  33        1.061546634816
  34    -0.023600941761931
  35      0.12510880421389
  36    0.0051129387061832
  37      0.53100129585633
  38    -0.0022308707335293
  39      0.12803200423086
 Sym= A
 Ene=    0.1546708681
 Spin= Alpha
 Occup=    0.00000
   1    -0.00026534907771751
   2    -0.0031864092600456
   3     0.022687643901158
   4    -0.00013030743712455
   5    -0.0012788954276999
   6    0.0015141621576978
   7    -0.016094552625237
   8     0.032988769557812
   9    -0.026552451948095
  10    -0.016661805244494
  11     0.008825490326773
  12       0.2729654316643
  13    0.00021794853739456
  14    -0.0067177869686462
  15       0.1934477486078
  16    0.0089720187433234
  17    -0.021398706468402
  18      0.40041051598028
  19     0.016811920678625
  20    -0.014888396016217
  21      -0.2995089502213
  22    -0.037721614706104
  23     0.033227953774479
  24      0.34374155484001
  25    -0.087222516933266
  26      0.13795403081561
  27       1.0947977285276
  28    -0.059374944940245
  29     -0.77148051504188
  30     0.050103365068554
  31      0.54811966822203
  32     0.017646618559467
  33      0.35480834615249
  34     0.099008792014776
  35       1.3049365951912
  36     -0.10633241694086
  37      -1.3006369296596
  38     0.012922127755444
  39     -0.14308696116574
 Sym= A
 Ene=      0.17018673
 Spin= Alpha
 Occup=    0.00000
   1    -0.0033170351411626
   2    -0.033885702428493
   3      0.41134439015226
   4    -0.001054881090148
   5    -0.0013947374156358
   6    -0.0026924535091156
   7      0.16980125528636
   8    -0.095909075893249
   9     0.050890339297237
  10     0.044731606329364
  11    -0.0025534781334572
  12     -0.74044670761333
  13     0.033253210739077
  14     0.040455459192433
  15    -0.034862995307428
  16      0.41875782018774
  17     -0.44273611147625
  18      -0.1123372119383
  19    -0.020865762510325
  20     0.027858782792558
  21       0.3325224271784
  22     -0.22857915918232
  23      0.33055777406433
  24    -0.024142679203877
  25     -0.81672841656094
  26       1.1311656332342
  27    -0.059749017763519
  28     0.023952921503872
  29      0.36474892162733
  30    -0.0011523622669059
  31     0.091728884490773
  32     0.059552257646087
  33        1.545938713239
  34    -0.041926133162078
  35      -1.0663566408687
  36    -0.018706530403953
  37      -0.8209318911023
  38     0.003142092536617
  39     -0.19107690741996
 Sym= A
 Ene=    0.2016678845
 Spin= Alpha
 Occup=    0.00000
   1    6.8082470150059e-05
   2    0.0014274113752933
   3     0.029327725282538
   4    -4.5674133633639e-05
   5    0.0019970548159988
   6    0.0035989898693721
   7     0.050630726932721
   8    -0.073402768045792
   9     -0.14105625306476
  10      0.01152780701274
  11    0.0045762525334477
  12     -0.17470322837522
  13     0.017823990425426
  14    -0.011435190657028
  15      0.38464595445815
  16      0.14795473985677
  17     -0.14252977523672
  18       1.4430375020776
  19    -0.0095009448079147
  20    0.0063463569453238
  21      0.18599381781996
  22     0.011212029707309
  23     0.028328572048157
  24     -0.15534312693528
  25    -0.048461561293028
  26      0.12725154028456
  27      -0.9391859561556
  28    -0.032103668773955
  29      -1.4319686304089
  30     0.030459649001755
  31       1.4667013685656
  32    -0.0012470920847975
  33    0.0042691120447652
  34    -0.026877542917176
  35     -0.87953973177031
  36     0.018944456167975
  37      0.59869948616352
  38    0.0040985131854282
  39      0.23470987164127
 Sym= A
 Ene=    0.2584938526
 Spin= Alpha
 Occup=    0.00000
   1    0.0026959477964878
   2     0.027528460391805
   3     -0.26617367281634
   4    0.0004340704774973
   5    0.0016928886323385
   6    -0.0007422851171688
   7     -0.20061349187586
   8    0.0064318830759673
   9     0.017756341451807
  10    -0.078072503792032
  11     0.035468819564659
  12       1.5809517868638
  13      0.27667469080453
  14      0.28007247750758
  15     0.012252517686996
  16       1.0343245136559
  17       1.5695096847504
  18     0.026933103326989
  19     0.069169646784212
  20    -0.031953230683995
  21      -1.5020705268879
  22      0.18032080987827
  23      0.16922132002101
  24    -0.0079697951264522
  25       1.6819528873346
  26      0.84340183688734
  27    -0.043873106368226
  28     0.064307397021929
  29      0.51609822087156
  30     0.052736537472219
  31      0.54497461327715
  32    -0.058426881096171
  33     -0.27132098204715
  34    -0.079383244611186
  35     -0.25176699607107
  36    -0.068085790334326
  37     -0.16077482548748
  38       0.0231809374169
  39     -0.18637560335195
 Sym= A
 Ene=    0.2756739439
 Spin= Alpha
 Occup=    0.00000
   1    -0.0025630772307163
   2     -0.02537025712705
   3      0.16121743133271
   4    0.0017241229051576
   5    0.0032007267293902
   6    0.0078513801227126
   7      0.14473674013431
   8      -0.2372404160453
   9     -0.17654919012076
  10     0.029324655951917
  11    0.00086573503937165
  12     -0.28575961049689
  13      0.11863838473997
  14    -0.050798346108542
  15     -0.12387506450251
  16       0.7590766950424
  17     -0.45798144929791
  18     -0.22195993624671
  19    -0.018604908199745
  20      -0.0044255070692
  21       0.4180752274209
  22      0.16439987954547
  23     0.069128767308508
  24     0.069405100779987
  25     0.028671467242648
  26      0.49693283003783
  27      0.35672604907236
  28    -0.082842169913767
  29      0.19172947870707
  30     0.039171765656939
  31     -0.28326742779919
  32    0.0033025614701316
  33     -0.10435267331429
  34    0.0078790919753154
  35    -0.074012712966211
  36    -0.081242428604028
  37     -0.82725184508853
  38    -0.070610181616668
  39       1.3596125638137
 Sym= A
 Ene=    0.5358135801
 Spin= Alpha
 Occup=    0.00000
   1    -0.012648636205513
   2     -0.13534698052701
   3      0.91235369012232
   4    0.0069000463849878
   5     -0.01349978507132
   6     0.023551249059294
   7    -0.067134946008367
   8      0.18380777053187
   9     -0.27823574554046
  10    0.0043991971782979
  11    -0.077512329953275
  12     -0.12096352247728
  13     0.015457541681497
  14    -0.036263438609424
  15      0.30213272665452
  16      0.28286694909205
  17     -0.23460155029636
  18     -0.43044913472524
  19    0.0030336608454893
  20    -0.089146157981863
  21     0.052141832101815
  22      0.28333096999895
  23     0.081214438507959
  24      0.27178223678688
  25      -0.4226569035291
  26     0.034375785910562
  27     -0.57209068826277
  28      0.22480191070822
  29    -0.039228389103336
  30     -0.33267304492647
  31    -0.044705923706218
  32     0.010347591086112
  33     0.095067482688962
  34      -0.2380608167974
  35     -0.15544754774339
  36      0.26157092324103
  37     0.091910985351704
  38    0.0090798264619251
  39     -0.26930189770641
 Sym= A
 Ene=    0.5406772768
 Spin= Alpha
 Occup=    0.00000
   1    -0.0051819959296653
   2    -0.054852235160471
   3      0.26836010931179
   4     0.028414505433041
   5    0.0082927339459769
   6    0.00054167324457861
   7     -0.38793811194945
   8    -0.060706000676875
   9    -0.004808682877156
  10     0.023165909517193
  11    -0.059650122132741
  12      0.53769316672607
  13      0.38178852783422
  14      0.23266298601603
  15     0.017037002716653
  16     -0.41047972232588
  17     -0.49119357017228
  18    -0.027530364505524
  19    -0.0042524703872997
  20      0.07509844244747
  21      0.25962045838373
  22      -0.5361964666997
  23     -0.18595784062093
  24     0.014262511173436
  25      0.77648769682759
  26      0.30235254961438
  27    -0.026507301287356
  28     -0.17271518633267
  29    -0.059549466786108
  30     -0.19885415815337
  31    -0.057066686985743
  32     -0.26656608330964
  33     0.018553343408031
  34    -0.017546714160562
  35    -0.096666736585909
  36     0.003783905918564
  37    -0.088992390118663
  38    -0.0054511746738985
  39    -0.0028295288477201
 Sym= A
 Ene=    0.5725186193
 Spin= Alpha
 Occup=    0.00000
   1    0.00020374642242741
   2     0.002465211256984
   3     0.082538841106715
   4    -0.021412615064556
   5    -0.014137228434362
   6    6.5523196229002e-05
   7      0.44017347983306
   8      0.18043277641506
   9    -0.0013554038208267
  10     0.020563468747497
  11     0.023041965696787
  12    -0.070410214344811
  13      0.15537391600482
  14      0.30245234323309
  15     0.033243780511516
  16     -0.14197274516425
  17      -1.0719753432859
  18    -0.048777409148279
  19    -0.0048018675827968
  20     0.033893537417075
  21      0.52777705476262
  22     0.020635808801988
  23     -0.73981670139543
  24      0.13101133387873
  25     -0.45064621867503
  26       1.4294008771543
  27     -0.25189118429265
  28     0.052141775206908
  29     -0.15660966637121
  30    -0.052158432967664
  31     -0.15119066912646
  32      0.28120384796571
  33      0.26136511371696
  34     -0.31254148323321
  35     -0.27510504735612
  36     -0.15364853875344
  37     -0.18571662505394
  38    -0.026501890148591
  39     0.069315663519711
 Sym= A
 Ene=    0.5941073481
 Spin= Alpha
 Occup=    0.00000
   1    -0.010210866036396
   2     -0.10945799150834
   3      0.83087938690779
   4    -0.0027940394866654
   5    -0.0076861333151988
   6     0.015080774730024
   7     0.092251927649156
   8      0.12821215752057
   9     -0.16354730392739
  10    -0.0038344380678768
  11    -0.041159577700274
  12     -0.12023479026724
  13     0.047611756900092
  14      0.16218214862328
  15      0.11116049179901
  16      0.13666292091387
  17     -0.59485835206967
  18     -0.32576085497973
  19    0.0070799094394826
  20     -0.10012728153473
  21      0.21563820951805
  22      0.24304112713429
  23    -0.093287823907532
  24     -0.73155373832197
  25     -0.48182586439026
  26      0.31441874983909
  27       1.4835867652452
  28     -0.16684382019286
  29    -0.028739087657852
  30    0.0063069222583759
  31     -0.15935450005904
  32     0.058346378930237
  33      0.16710006981294
  34       0.2807610874082
  35      0.21572743094475
  36     -0.34486074285483
  37     -0.31974716805209
  38     0.018694668128598
  39     -0.37227936987902
 Sym= A
 Ene=    0.6532414112
 Spin= Alpha
 Occup=    0.00000
   1    0.0086980506154305
   2     0.094818387056213
   3     -0.85626480121151
   4     0.018638956719617
   5    -0.021786717022485
   6      0.01877171627659
   7      -0.4013256970305
   8      0.30687747971144
   9     -0.26633297688662
  10     0.062404116521009
  11     -0.10632430548853
  12      0.48225023129663
  13     -0.05475866467389
  14     -0.63320371190143
  15      0.18730838150825
  16    -0.028474951572008
  17       1.4298752514039
  18     -0.45361722458554
  19    -0.030210213516869
  20      0.29608593611701
  21       -0.618219598651
  22     -0.48489307632133
  23     -0.20477269502406
  24     -0.20837253963752
  25      0.83470055952407
  26      0.21877780658976
  27      0.52655154122429
  28      0.36264012596291
  29      0.37079173382806
  30      0.18636397796265
  31      0.19615002296635
  32     0.078515598636119
  33     -0.14953613053199
  34     -0.03154330050583
  35     0.097315231148339
  36      -0.1177334477519
  37     -0.21666281410624
  38    0.0098923324919296
  39      0.17314074036987
 Sym= A
 Ene=    0.7169545835
 Spin= Alpha
 Occup=    0.00000
   1    -0.0088201107188574
   2    -0.096627715582629
   3      0.89874348944948
   4    -0.017907719215025
   5    0.0054589022415459
   6    -0.0051640659280066
   7      0.20200300350539
   8     -0.11626473311257
   9     0.080033816809964
  10    -0.00039138407910947
  11     -0.44412807541723
  12       1.2141753603493
  13     -0.91515380009178
  14    -0.0049351176179104
  15    -0.069256599578321
  16        1.630798090479
  17     0.054371288470995
  18      0.18403913470143
  19    -0.045355705578779
  20     0.089403972970155
  21     -0.49096901579782
  22     -0.39604719262707
  23     -0.29975757180255
  24     0.041828223381895
  25       1.0280229524082
  26      0.77067460736856
  27     -0.14013327128533
  28    -0.048451252526518
  29     -0.13499404656434
  30      0.01994641830864
  31    -0.042451019559113
  32     -0.29395970053894
  33     -0.19575321778686
  34    -0.099979703121944
  35     -0.30015794352188
  36    -0.097001757497815
  37     -0.18809797612857
  38    0.0050317350252728
  39     -0.13248074834778
 Sym= A
 Ene=    0.7842397499
 Spin= Alpha
 Occup=    0.00000
   1    -0.0097356809040414
   2     -0.10169242209613
   3      0.86852550996302
   4     0.023031754808119
   5    -0.0080076471770518
   6    -0.011994138113843
   7     -0.44574226648198
   8      0.19777876038197
   9       0.1703274058726
  10     0.034451664447133
  11    -0.033104918123022
  12     -0.12841636814646
  13      0.10092668774271
  14     -0.25005730771051
  15      -0.6031717742975
  16      0.21045997688904
  17      0.56926233099017
  18       1.7457337662599
  19     0.014622895450331
  20     0.015951691005646
  21     -0.49833961093429
  22      0.15935459695343
  23     -0.23754442715513
  24      0.24397701426852
  25     -0.46126668959229
  26       0.5577460292656
  27       -0.987111713409
  28    -0.012986779979428
  29       -0.395680965372
  30      0.38973943925291
  31      0.78669343974845
  32      0.27846033161392
  33      0.33122317439019
  34     0.095603982947127
  35     -0.54593463825672
  36    0.0022458076155939
  37      0.39834822532108
  38     0.025418824544913
  39      -1.0183128373603
 Sym= A
 Ene=    0.8501277371
 Spin= Alpha
 Occup=    0.00000
   1    0.0043045834070979
   2     0.045368413154442