[Molden Format]
made by pyscf v[1.7.5.1]
[Atoms] (AU)
GHOST-O   1   0    -2.21324723709060     0.56635091953215     0.00000000000000
C   2   6    -0.08749431956736    -1.07052984956611     0.00000000000000
C   3   6     2.30074155665796     0.50417893003396     0.00000000000000
H   4   1    -0.18103576273333    -2.29034806297285     1.66654946925393
H   5   1    -0.17990192705859    -2.25595504750577    -1.69054899103590
H   6   1     3.97787349220946    -0.70297811833820    -0.03344815240480
H   7   1     2.34817368238455     1.75876810413270    -1.64481761882143
H   8   1     2.38407847875128     1.71058008795629     1.67921063428851
GHOST-H   9   0    -2.13368976724641     1.58056693058622     1.53048918828524
[GTO]
1 0
 s    6 1.00
             5484.6717   0.001831099805527
             825.23495   0.013950098518422
             188.04696    0.06844509273075
               52.9645    0.23271427528445
              16.89757    0.47019295006289
             5.7996353    0.35852086192309
 s    3 1.00
             15.539616   -0.11077750382508
             3.5999336   -0.14802630511126
             1.0137618     1.1307670390447
 s    1 1.00
             0.2700058                   1
 p    3 1.00
             15.539616   0.070874299543311
             3.5999336    0.33975279781076
             1.0137618    0.72715859531445
 p    1 1.00
             0.2700058                   1

2 0
 s    6 1.00
             3047.5249  0.0018347001629433
             457.36951    0.01403730124668
             103.94869   0.068842606114048
             29.210155    0.23218442062076
              9.286663    0.46794134155879
              3.163927    0.36231203217765
 s    3 1.00
             7.8682724   -0.11933240861517
             1.8812885   -0.16085421161283
             0.5442493     1.1434564825515
 s    1 1.00
             0.1687144                   1
 p    3 1.00
             7.8682724   0.068999095584993
             1.8812885    0.31642397975315
             0.5442493    0.74430825237435
 p    1 1.00
             0.1687144                   1

3 0
 s    6 1.00
             3047.5249  0.0018347001629433
             457.36951    0.01403730124668
             103.94869   0.068842606114048
             29.210155    0.23218442062076
              9.286663    0.46794134155879
              3.163927    0.36231203217765
 s    3 1.00
             7.8682724   -0.11933240861517
             1.8812885   -0.16085421161283
             0.5442493     1.1434564825515
 s    1 1.00
             0.1687144                   1
 p    3 1.00
             7.8682724   0.068999095584993
             1.8812885    0.31642397975315
             0.5442493    0.74430825237435
 p    1 1.00
             0.1687144                   1

4 0
 s    3 1.00
             18.731137    0.03349459952309
             2.8253937    0.23472694665786
             0.6401217    0.81375731841339
 s    1 1.00
             0.1612778                   1

5 0
 s    3 1.00
             18.731137    0.03349459952309
             2.8253937    0.23472694665786
             0.6401217    0.81375731841339
 s    1 1.00
             0.1612778                   1

6 0
 s    3 1.00
             18.731137    0.03349459952309
             2.8253937    0.23472694665786
             0.6401217    0.81375731841339
 s    1 1.00
             0.1612778                   1

7 0
 s    3 1.00
             18.731137    0.03349459952309
             2.8253937    0.23472694665786
             0.6401217    0.81375731841339
 s    1 1.00
             0.1612778                   1

8 0
 s    3 1.00
             18.731137    0.03349459952309
             2.8253937    0.23472694665786
             0.6401217    0.81375731841339
 s    1 1.00
             0.1612778                   1

9 0
 s    3 1.00
             18.731137    0.03349459952309
             2.8253937    0.23472694665786
             0.6401217    0.81375731841339
 s    1 1.00
             0.1612778                   1

[5d]
[7f]
[9g]

[MO]
 Sym= A
 Ene=    -10.29139373
 Spin= Alpha
 Occup=    2.00000
   1    0.0011719069595212
   2    -0.0058107062805169
   3    -0.0015379134123004
   4    -0.023159092104911
   5     0.016104466475765
   6    -0.00041613714898746
   7    -0.013871811855539
   8    0.0080018980092788
   9    -0.0025411570885002
  10      0.99058323018819
  11     0.029166640874131
  12    -0.034708342756586
  13     0.015486800706067
  14    -0.012084384104016
  15    -0.00010961847507475
  16    -0.000146340275656
  17    -0.0059308759923264
  18    -0.0024800876922769
  19     -0.11348127726521
  20    -0.0042620806216664
  21     0.016706451015217
  22    -0.0042723687557748
  23    0.0016340860306392
  24    -1.533333457204e-05
  25    -0.008048161259003
  26    -0.0027380878746519
  27    0.0010778946450662
  28    0.0021631429577019
  29    0.0095439287140513
  30    0.0016639143423154
  31    0.0064183842701276
  32    -0.0039449413445363
  33    -0.0045752882533789
  34    0.0012861429306105
  35    0.0017107375413369
  36    0.0012565250165535
  37    8.9692246118165e-05
  38    0.0045526395082046
  39    0.0051046906841329
 Sym= A
 Ene=    -10.21106523
 Spin= Alpha
 Occup=    2.00000
   1    -9.7706639878053e-05
   2    -0.00062818628835215
   3    0.00085409464087739
   4    0.0032164092816646
   5    0.0051384987510956
   6    -0.00087143027170347
   7    0.0033698608253814
   8    0.0035050364209081
   9    -0.00091497112618009
  10      0.11286463841048
  11    0.0026741798001522
  12    0.0033608172097641
  13    -0.00055856562161848
  14    -0.0011641946096652
  15    -6.9227833159857e-06
  16    0.0037999763485714
  17    0.0018158002614468
  18    -0.00021591289371204
  19      0.98932681527093
  20     0.035091030984802
  21    -0.032669306520409
  22    0.0012656875912167
  23    0.00041922947656391
  24    5.0548115062113e-05
  25    0.0012038716272241
  26    0.0011269131916657
  27    0.00010352273160961
  28    0.0003807138419245
  29    0.0019775843979241
  30    8.4096786284013e-05
  31    0.0014433599403315
  32    -0.00017045962996113
  33    0.0065501748725314
  34    -0.00064497598966868
  35    0.0058107999700508
  36    -0.00071789433715956
  37    0.0056464799873716
  38    0.0010898163163274
  39    0.00070663325891231
 Sym= A
 Ene=    -0.763946237
 Spin= Alpha
 Occup=    2.00000
   1    0.0017867799545735
   2    -0.014616772825512
   3    -0.049304569950236
   4    -0.026854387439142
   5    0.0043852046537522
   6    -0.0011186500575847
   7    -0.036481768533017
   8    0.0098667325611187
   9    -0.00026132230170817
  10     -0.13053091952342
  11         0.24109213135
  12      0.21235812661175
  13      0.14271278538615
  14    -0.023399594606135
  15    -0.0042420442125862
  16     0.036390880500407
  17    -0.020300246864995
  18    0.0025295565976663
  19     -0.16348220756284
  20      0.30977288198137
  21      0.29408562623984
  22     -0.05273049300292
  23    -0.039877326662853
  24    -0.0034934838772241
  25    -0.0086133032949247
  26    -0.0098184703249136
  27    -0.0024657285480636
  28     0.083681117580218
  29     0.016452574732268
  30     0.088566997492282
  31      0.02260691855319
  32     0.089231763536752
  33    0.0027873677251322
  34     0.095252715978547
  35     0.016227094739645
  36     0.092115066369991
  37     0.015586487603035
  38    -0.00081624946683825
  39    0.0077870041479868
 Sym= A
 Ene=   -0.6180237212
 Spin= Alpha
 Occup=    2.00000
   1    0.0018021346932029
   2     -0.01442130217929
   3     -0.05496298360232
   4    -0.010612137672422
   5     0.018402609872033
   6    -0.0035159230156497
   7    -0.018975289755256
   8     0.030979375786898
   9    -0.0036704487301437
  10     -0.13571928505538
  11       0.2573819669565
  12      0.31302813188386
  13      0.02958259907963
  14     -0.17698290832014
  15    -0.0088109246893334
  16     0.042718579537283
  17    -0.057495621356553
  18    -0.004499575251056
  19      0.11182575740432
  20     -0.20990748706949
  21      -0.2863262682426
  22     -0.13992249922126
  23    -0.092083011355115
  24    0.0063364811061206
  25     -0.03714490286007
  26    -0.019608799954759
  27    0.0036656047212732
  28      0.15074244002375
  29     0.064218397165355
  30      0.15899311436575
  31     0.067160091500519
  32     -0.12382649424721
  33    -0.059888589895819
  34     -0.11038255700787
  35    -0.034849986997012
  36     -0.10371440828888
  37    -0.031090249707016
  38    0.0063581162205724
  39     0.015212358028096
 Sym= A
 Ene=   -0.4427651413
 Spin= Alpha
 Occup=    1.99992
   1    -0.00033721487253124
   2    0.0014142273975659
   3    0.0070154282593098
   4    -0.0044417018235616
   5    0.0026179991950666
   6    -0.015118788739547
   7    -0.007921724538306
   8    0.0056264789178494
   9    -0.033722666578608
  10    -0.0026465321497902
  11    -0.00020327726450436
  12     0.014430782522047
  13     0.026477932668492
  14       0.0282616034058
  15      0.32640109786961
  16    0.0073168826413555
  17     0.028278844681924
  18      0.14444911636913
  19    -0.0019744825335114
  20    0.0042971901944999
  21    -0.0097212205979078
  22    -0.031905753056911
  23    -0.015255691492289
  24      0.32305366379317
  25    -0.015874165635644
  26    -0.011703221819166
  27      0.16298516753239
  28      0.14244687898352
  29      0.10073796060536
  30     -0.16379967720115
  31     -0.10608804741597
  32    -0.012731476920344
  33    -0.0085224919524516
  34      -0.1588261808431
  35     -0.10191542605575
  36       0.1544320613153
  37      0.10698094306502
  38    -0.017447277479067
  39    -0.022153739273977
 Sym= A
 Ene=   -0.4327338611
 Spin= Alpha
 Occup=    1.99987
   1     0.001172522165469
   2    -0.0082982380250438
   3    -0.040212288917359
   4    -0.019193364201512
   5    -0.00027341230678649
   6    -0.0036533641569677
   7    -0.033569370344753
   8     0.010767664256843
   9    -0.009545438938921
  10    -0.014698111773351
  11     0.015220756451875
  12     0.035004331345468
  13     0.010851682432932
  14     0.062365750531992
  15      0.13198529315984
  16    -0.011433837780487
  17     0.030236378788225
  18     0.068441776412602
  19    -0.0018642619889554
  20    0.0065990742750947
  21     0.016159464420887
  22     -0.26469712248954
  23      0.30722768297131
  24     -0.13900775222833
  25     -0.12522740006561
  26      0.14982330190741
  27    -0.076001511012966
  28     0.074078082949835
  29     0.073277240275296
  30    -0.082966828468081
  31    -0.065600070857755
  32      -0.2588784870015
  33     -0.21251260800252
  34      0.20193509859454
  35      0.16215017460054
  36     0.028589860580421
  37    0.0097305027118826
  38    -0.010485493205101
  39    -0.008784773512365
 Sym= A
 Ene=    -0.431685126
 Spin= Alpha
 Occup=    1.99986
   1    -0.0012978779659772
   2    0.0048725932945647
   3     0.043791657914488
   4    0.0016585441746906
   5    0.0033006237193889
   6    -0.00069746809921851
   7    -0.0025142935414957
   8    5.6723455046159e-05
   9    -0.012102365071066
  10    -0.00039394524052507
  11    0.0038975070978257
  12     0.016128024570741
  13     0.097526576172852
  14     0.083946105629763
  15      0.27764051447261
  16     0.043276732988888
  17     0.052378438380385
  18      0.13069044018375
  19    -0.0026938000234214
  20    0.0075723432532306
  21    0.0053028525259863
  22    0.0084523062410261
  23     -0.22636051682478
  24     -0.26628756053797
  25     0.015890922180586
  26     -0.10977050954477
  27     -0.13317488352197
  28      0.12405424544187
  29      0.11607577292946
  30     -0.20240804879743
  31     -0.17957017687933
  32      0.10055829024841
  33     0.077542973554244
  34     0.072097521448531
  35     0.078703305577946
  36     -0.25200573109372
  37      -0.2362519974855
  38    -0.021993216290548
  39    -0.048222463684399
 Sym= A
 Ene=   -0.4266439346
 Spin= Alpha
 Occup=    1.99982
   1    2.197002964777e-06
   2    4.4633856048312e-05
   3    -0.00015503104933873
   4     0.018183456066463
   5     0.012719111780538
   6    -0.0073638311560787
   7     0.036088297117943
   8     0.033159936159977
   9    -0.019872676549051
  10     0.011002192839483
  11    -0.026911147695286
  12    -0.012842553533305
  13     -0.26155076563373
  14     -0.31628199213438
  15      0.13207895079059
  16     -0.09372756656279
  17     -0.13218109804809
  18     0.052771043340354
  19     0.015277890854349
  20      -0.0346341567235
  21    -0.074246584285031
  22      0.31780877412832
  23      0.19943662568556
  24    -0.072150278718748
  25      0.14969861133748
  26      0.11478446002409
  27    -0.037766390484188
  28      0.19595405489913
  29      0.18137762248499
  30     0.038601838268925
  31     0.029839409292912
  32     0.076438806333791
  33     0.079892892990117
  34      0.11899785162894
  35       0.1211953471888
  36     0.026983733926257
  37     0.027191665450635
  38    0.0052598140867084
  39    0.0090012168170008
 Sym= A
 Ene=  -0.07171993135
 Spin= Alpha
 Occup=    0.00045
   1    -0.0051275428374766
   2    -0.062672463196135
   3      0.33923104118282
   4    -0.030091665860259
   5    0.0063807131088097
   6    -0.007221260699147
   7    -0.068373326057483
   8      0.18526223836192
   9      0.15107245972569
  10    0.0094728960711714
  11     -0.15532539115559
  12      0.44585159806146
  13      0.32100473739513
  14     -0.33593476339472
  15     0.021999509745967
  16      0.17454035688428
  17     -0.37571693966909
  18     0.076776490833003
  19    -0.056169011653995
  20      0.12308459734762
  21       0.7302506931622
  22      0.05293963104446
  23     0.023578448945925
  24     0.056393487558731
  25      0.17110119705764
  26        0.203032752151
  27      0.11309062131686
  28    -0.022634731310971
  29      -0.4113683808089
  30    -0.027541762088821
  31      -0.1784151237949
  32     -0.12835720391893
  33     -0.45135396810733
  34     0.041458753752319
  35     -0.24332748205807
  36    0.0075648196016346
  37     -0.47097745959102
  38     0.020075120918005
  39     -0.67026354166602
 Sym= A
 Ene=  -0.03670614158
 Spin= Alpha
 Occup=    0.00008
   1    0.0056865687031117
   2     0.060825638767064
   3     -0.45666042323283
   4    -0.003147435637701
   5     0.011285507346169
   6    0.0047323494354538
   7     -0.21020101849309
   8    0.00063368197033157
   9     -0.19473204559368
  10     0.087461790621424
  11     -0.40094510118975
  12     -0.53024128451592
  13      0.35986638898356
  14     -0.22212513610213
  15    -0.025058552270707
  16    -0.039931635082277
  17      0.18959509010244
  18     -0.14670126803683
  19     0.044305546457124
  20     -0.13419966922847
  21     -0.58558667727972
  22     -0.13407685964144
  23    -0.063399839263376
  24    -0.054761843967055
  25     -0.23404092224274
  26     -0.25267531738143
  27    -0.041956258083465
  28     0.068016816876387
  29      0.49998775432011
  30     0.024931104729565
  31      0.21386588088971
  32    -0.016124655043781
  33      0.35110793828929
  34     0.022922246509123
  35      0.32359399697178
  36      0.04760984378649
  37      0.45066280255796
  38     0.015517794115812
  39      0.71306573417105
 Sym= A
 Ene=    0.2738821465
 Spin= Alpha
 Occup=    0.00000
   1    0.0048234788637778
   2     0.053781909020283
   3     -0.16422368327307
   4    0.0037393539915374
   5    -0.00035543511473207
   6    0.0015445952510344
   7      0.17714178234476
   8     0.035773917738326
   9    -0.0042427944734779
  10    0.0095924658208378
  11    -0.041527129250531
  12     -0.11720991683396
  13     0.094595343850569
  14      0.22834105065754
  15      0.33794997361798
  16      0.21658333608325
  17     0.070516129143984
  18      0.24290005069066
  19     0.041947476375873
  20     -0.29722043660842
  21     -0.14171165717148
  22    -0.024332091320785
  23      0.14063380837337
  24      0.50250505698694
  25     0.095467770000961
  26      0.17081557858801
  27      0.44748968535196
  28    -0.051597207828628
  29     -0.29135664872232
  30      0.17038563670035
  31      0.71629659313898
  32     0.051223621168381
  33      0.24354789417417
  34     0.081674906790764
  35      0.78037307939899
  36     -0.17211056654453
  37     -0.77475666638167
  38    0.0035108411955947
  39     0.060272811997962
 Sym= A
 Ene=    0.3010617868
 Spin= Alpha
 Occup=    0.00000
   1    0.0074133967394151
   2     0.078818949069219
   3     -0.26906615932947
   4    0.0032723247727864
   5    0.00019848333057494
   6    0.0010902471059356
   7      0.28311139530943
   8     0.071841303429274
   9    -0.061846261518733
  10      -0.0281407127555
  11      0.22076799520661
  12     0.036084757138502
  13     0.097123093382383
  14      0.20139212319766
  15     -0.19283296204232
  16      0.20901648726501
  17    0.0031952311619509
  18     -0.17393136418794
  19     0.084759624676485
  20     -0.59511865965109
  21     -0.31123702658552
  22    -0.066475749237654
  23      0.10743485418719
  24     -0.21046535349443
  25      0.13299929950956
  26      0.03070075331787
  27     -0.14283741313974
  28      0.16606938383022
  29      0.24113106068224
  30    -0.032438544688318
  31     -0.31636936974702
  32    -0.002228762222801
  33      0.32121936903899
  34    -0.070526895816565
  35    -0.018256765839337
  36     0.064313603338622
  37      0.59540500032917
  38     0.024691801952559
  39     -0.34656211962056
 Sym= A
 Ene=    0.3399078322
 Spin= Alpha
 Occup=    0.00000
   1    -0.0049380964638539
   2    -0.050184726254516
   3      0.30026077795057
   4    0.0038755420032349
   5     0.014985565052778
   6     0.005670550859527
   7     -0.16983033671543
   8     -0.05254982628479
   9     -0.15774575000036
  10    -0.062908150364024
  11      0.39271003261345
  12      0.29300832916242
  13    -0.0018524227751635
  14     -0.32859130752999
  15     -0.20742240347133
  16     0.086758855434445
  17     0.046744982516222
  18     0.051459566223826
  19      0.05287720105297
  20     -0.43846698436159
  21     -0.15742428261341
  22      0.10799912954102
  23     -0.46587087864166
  24       0.3508876989817
  25      0.11495912361216
  26    0.0066828385249661
  27     0.048159310195762
  28    -0.087778717261386
  29     -0.21867116797846
  30      -0.1178859226659
  31     -0.51729787359243
  32      -0.1313553753696
  33     -0.14566428860189
  34     0.096352798756929
  35      0.75986177831656
  36     0.017590964628951
  37     0.090850620833615
  38     0.009196917322422
  39    -0.049590464677043
 Sym= A
 Ene=     0.353239319
 Spin= Alpha
 Occup=    0.00000
   1    0.0061071495377439
   2     0.061785146660987
   3     -0.30529134784422
   4    0.0023347120475602
   5    0.0072593092070878
   6    -0.0089088533548877
   7     -0.12261912710045
   8     -0.38123705139493
   9      0.29770029816093
  10     0.030624827938051
  11     -0.12476310292138
  12     -0.10161867421075
  13     -0.38377143298643
  14     -0.16230102847563
  15      0.40058274921726
  16    -0.041514042533108
  17     -0.07611088692848
  18    -0.053325029978384
  19    0.0035684330138689
  20    -0.097968558495122
  21     -0.10563210108045
  22      -0.4107757402417
  23     -0.39948243845325
  24     -0.12542305444997
  25    -0.060715812210154
  26      -0.1760668130013
  27    -0.080266351659823
  28     -0.18540561722513
  29     -0.23870932688287
  30     0.047693216532176
  31      0.18289976851193
  32    -0.070346115289727
  33     0.084189649243731
  34      0.08968781544439
  35      0.13712789705576
  36      0.11776405928102
  37      0.45991579918113
  38    0.0021504410392559
  39    -0.093522954151726
 Sym= A
 Ene=    0.3718127874
 Spin= Alpha
 Occup=    0.00000
   1    0.0037232426155337
   2     0.037253712427425
   3     -0.24370685853041
   4    -0.0024667969325929
   5    -0.00022097948786821
   6    -0.012831470495565
   7      0.18195228376612
   8     0.062231509349539
   9      0.29962676663947
  10    -0.059931288716387
  11      0.40713094855335
  12      0.18851185736984
  13      0.26521276198464
  14     0.018728481872777
  15      0.29528680907704
  16      0.18673878794638
  17     0.026082230747664
  18     0.066547034965141
  19     0.024496574243644
  20    -0.079184420787381
  21    -0.071685768959616
  22      0.46359702214338
  23     -0.14505365486141
  24     -0.32095977614296
  25      0.26821799086574
  26      0.19954225861878
  27      0.01259010782261
  28     -0.17787981423616
  29     -0.35768732481458
  30      0.16188313997643
  31     0.045896731795428
  32    -0.084041458496856
  33     -0.39874325872315
  34    -0.026556149017957
  35      -0.1418608177254
  36    -0.016906854745651
  37      0.27010516905536
  38    0.0037778527883226
  39      0.39496440201038
 Sym= A
 Ene=    0.4029246143
 Spin= Alpha
 Occup=    0.00000
   1    -0.0075478662390939
   2    -0.090488447265841
   3      0.17069361604494
   4    -0.016356573842603
   5    0.0097714012067045
   6    -0.0087334365113578
   7    -0.016957893416438
   8    -0.035630859207521
   9      0.14005611413474
  10    -0.050985359170981
  11      0.42302004429195
  12    -0.0061235801970817
  13    0.0026856112316847
  14     -0.50065723314663
  15     0.068436178379675
  16       0.0431842272628
  17      0.11045482002566
  18    -0.021923098900031
  19     0.018606007922139
  20     -0.16189706028204
  21    -0.052702087520784
  22     -0.39666499934696
  23      0.56999822732534
  24    -0.050980592567658
  25    -0.093569045052881
  26     -0.10301527638893
  27     0.071870200785794
  28    -0.053602275977667
  29      -0.4422359796211
  30     0.046076688744547
  31     -0.37275830295642
  32      0.11504194688255
  33      0.71323717964106
  34     0.012254727539962
  35     -0.21445825044051
  36    -0.037361668085354
  37     -0.20100348723287
  38    -0.028349526703235
  39      0.16998341415279
 Sym= A
 Ene=    0.4942053856
 Spin= Alpha
 Occup=    0.00000
   1    -0.0097524982831477
   2    -0.099322542607785
   3      0.65749331061328
   4    -0.0039136587356722
   5      0.01091086449754
   6     0.016923780081302
   7      -0.1122414124044
   8      0.18154429656754
   9     -0.14619406979757
  10    -0.014504591247874
  11    -0.0056643807268654
  12      0.14450017081173
  13      0.23629077618247
  14     0.048139466971642
  15      0.65369630780212
  16     -0.14842623617188
  17     -0.14586299954426
  18     -0.55293449154534
  19     0.026416708293213
  20     -0.26170180851868
  21      0.18528461382524
  22     0.010265805317885
  23    -0.012220104045753
  24     -0.24863518161381
  25    -0.010946225903274
  26      0.20387734146843
  27    -0.010613951066563
  28     0.096974950279977
  29     -0.26726655156514
  30     -0.26690274859428
  31      0.23959282943943
  32    -0.014911985470104
  33      0.16076541601504
  34     -0.18327581044426
  35     -0.22905264335557
  36     0.075309403598477
  37      0.24661596235269
  38     -0.00307016494483
  39      -0.3995147217871
 Sym= A
 Ene=    0.5876761914
 Spin= Alpha
 Occup=    0.00000
   1    -0.003286881071779
   2    -0.035623985794588
   3      0.22662901557948
   4    0.0045561221976177
   5     0.018685249375223
   6     0.001221768208834
   7     -0.23082905812093
   8     -0.20560830851645
   9      0.05985087433637
  10    -0.024191419906078
  11      0.18363154776523
  12      0.18845140869425
  13      0.40530809258518
  14      0.46276795539107
  15     -0.19043107521717
  16     -0.19567418498192
  17     -0.26563253658761
  18      0.24968777640534
  19     0.027736759383478
  20     -0.13065917716293
  21      0.18587161665957
  22     -0.18677507498711
  23      0.17555597660813
  24     -0.10619686375365
  25      0.83641520585993
  26    -0.065964899747522
  27      0.29249885458562
  28     -0.28951881624918
  29       0.1124114257192
  30    -0.037368599924436
  31     0.085859908327851
  32     -0.42786562655504
  33    -0.022027472454055
  34      0.15722188353733
  35     0.027176543473596
  36      -0.1796385316438
  37    -0.045617740224063
  38    0.0036505840557557
  39    -0.010386492736621
 Sym= A
 Ene=    0.6533108285
 Spin= Alpha
 Occup=    0.00000
   1    -0.001850968146579
   2    -0.017519335733831
   3      0.19614866817365
   4    -0.0031334945197263
   5    -0.0065364887523216
   6     0.030592927191379
   7      0.03802900488504
   8       0.1452654545357
   9     -0.31773601501143
  10     0.019418953267893
  11      -0.1135269220151
  12    -0.020437419253476
  13    -0.097081239779478
  14     -0.12611712192108
  15    -0.055914056678958
  16    0.0047108089265801
  17    -0.0041050201059477
  18      0.26757161591934
  19    -0.0040600240804796
  20    -0.051584938528635
  21     0.079017362508367
  22     -0.07504720399843
  23     -0.18216788642758
  24     -0.41495510677136
  25     -0.23737807061052
  26      0.26854982215003
  27       1.1340983053407
  28     -0.13106921183657
  29     -0.18025668923847
  30      0.24210741415139
  31      0.16256576153489
  32      0.23490130159882
  33     0.041825831940606
  34      0.51726811372566
  35    0.0047401171140138
  36     -0.62569217227073
  37    -0.029565727006424
  38     0.037190880208114
  39     -0.26031382915317
 Sym= A
 Ene=    0.6783823833
 Spin= Alpha
 Occup=    0.00000
   1    0.0039055415085993
   2     0.051081241065807
   3       0.2265916201428
   4     0.038031786024781
   5    -0.011779576398313
   6    0.0082798996206548
   7     -0.12974230472318
   8    -0.063926602356862
   9      -0.1060561260409
  10     -0.02329427788273
  11      -0.2236090044912
  12      0.11214129776865
  13     -0.48388088377085
  14     0.015689535894668
  15     0.072034980306204
  16      0.79048864678352
  17      0.15361889380921
  18    -0.0057090936648467
  19    0.0091142626655881
  20     -0.32463616844317
  21     -0.11074684686525
  22      0.45560140915154
  23      0.31481172759607
  24    -0.097325251487905
  25     -0.24561496111977
  26     -0.77273173044066
  27        0.175803462706
  28     -0.19140680107885
  29     0.036754613222844
  30    -0.088809834014503
  31     0.065568209685341
  32     -0.48188980319897
  33     0.045566800585255
  34      0.40690063155056
  35    -0.016817292794081
  36      0.27125921718137
  37    -0.032901826094827
  38     0.037250217021306
  39    0.0091244361887405
 Sym= A
 Ene=    0.8371378661
 Spin= Alpha
 Occup=    0.00000
   1     0.001608666939006
   2     0.027508345387925
   3      0.52180363067689
   4    -0.011042771065587
   5    -0.059859475928824
   6    -0.011403699926508
   7       0.2820990327304
   8      0.75815387247802
   9      0.27784829151903
  10     0.038497539252105
  11    -0.064155054737799
  12      0.24441203511964
  13     -0.43856266218247
  14     0.071291303084593
  15    -0.098370406058369
  16        0.142494590249
  17     -0.44548192843042
  18     0.093773915431069
  19    -0.065535469869642
  20      0.10184577722368
  21      0.49290838485683
  22     -0.47502248660648
  23     -0.29402869789118
  24    -0.026027970792893
  25      0.66466767194452
  26      0.23974963108236
  27    -0.045416533988542
  28     0.060419593566963
  29     -0.18464663502104
  30    -0.021361142623068
  31    -0.036712780627013
  32     -0.56139409723953
  33     0.049501532118219
  34     -0.22667609118673
  35    -0.089534941485089
  36     -0.11103612851811
  37     -0.11224989995693
  38    -0.035591035963047
  39     -0.26718565502061
 Sym= A
 Ene=    0.9175448412
 Spin= Alpha
 Occup=    0.00000
   1    -0.0010900262341397
   2    -0.018565986891324
   3     -0.38965602895881
   4     0.010191925237665
   5     0.016297530975349
   6     0.016529197846631
   7     -0.22687731320043
   8     -0.38854475384509
   9     -0.40609700229355
  10     0.050906640638337
  11      0.20237400064569
  12     -0.40134606167145
  13    -0.066341663243992
  14     0.006524096572709
  15       0.1474986738166
  16      0.19229004574438
  17      0.94980016987381
  18     -0.06999003808699
  19     -0.04059211987253
  20      0.28246798597613
  21     -0.42008666308451
  22      0.03244695590247
  23    -0.062693372347524
  24    -0.064494527944979
  25      0.49591873459074
  26     -0.15606416956362
  27      0.12831563306326
  28      0.70413951370629
  29    -0.081880563485894
  30        0.772882946965
  31     -0.11653122354737
  32     -0.57586477408268
  33        0.246185652983
  34    -0.081632134847052
  35      0.10868717574263
  36    -0.027259193879098
  37     -0.11338356718221
  38    -0.010257141148956
  39      0.45070692921709
 Sym= A
 Ene=    0.9303145039
 Spin= Alpha
 Occup=    0.00000
   1    0.00074612330283425
   2     0.014705278490843
   3      0.48071065785175
   4     0.014187200488298
   5    -0.011940145456523
   6    -0.010822908828155
   7      -0.1269979065552
   8       0.3182518018367
   9      0.31129960367455
  10     0.023891852974563
  11      0.09395972687475
  12    -0.059372649890515
  13     0.069228827347101
  14      0.36965718669573
  15    -0.028157164782538
  16     -0.11671665740128
  17     -0.22579579191504
  18     0.078152620245995
  19     0.078882354321885
  20     -0.22272546609348
  21     0.076263235739423
  22     -0.17258786977075
  23     -0.21642125956906
  24     0.012054302012936
  25    -0.072487883299752
  26     0.024309380163647
  27     -0.15042299085702
  28      0.33074022641332
  29     -0.18887914925219
  30      0.50531641800148
  31     -0.31757051384675
  32      0.41780166868163
  33    -0.062781364400446
  34      0.61704201424888
  35     -0.38437911650047
  36       0.7122642486296
  37     -0.27262187127692
  38    -0.0073885287819265
  39     -0.40090633621353
 Sym= A
 Ene=     1.018299104
 Spin= Alpha
 Occup=    0.00000
   1    -8.6328152078337e-05
   2    -0.0088987754101329
   3     -0.73172016468449
   4    -0.022850702240736
   5    -0.030836808257079
   6     0.011871089426146
   7      0.39132097459014