[Molden Format]
made by pyscf v[1.7.5.1]
[Atoms] (AU)
O   1   8    -2.21324723709060     0.56635091953215     0.00000000000000
C   2   6    -0.08749431956736    -1.07052984956611     0.00000000000000
C   3   6     2.30074155665796     0.50417893003396     0.00000000000000
H   4   1    -0.18103576273333    -2.29034806297285     1.66654946925393
H   5   1    -0.17990192705859    -2.25595504750577    -1.69054899103590
H   6   1     3.97787349220946    -0.70297811833820    -0.03344815240480
H   7   1     2.34817368238455     1.75876810413270    -1.64481761882143
H   8   1     2.38407847875128     1.71058008795629     1.67921063428851
H   9   1    -2.13368976724641     1.58056693058622     1.53048918828524
[GTO]
1 0
 s    6 1.00
             5484.6717   0.001831099805527
             825.23495   0.013950098518422
             188.04696    0.06844509273075
               52.9645    0.23271427528445
              16.89757    0.47019295006289
             5.7996353    0.35852086192309
 s    3 1.00
             15.539616   -0.11077750382508
             3.5999336   -0.14802630511126
             1.0137618     1.1307670390447
 s    1 1.00
             0.2700058                   1
 p    3 1.00
             15.539616   0.070874299543311
             3.5999336    0.33975279781076
             1.0137618    0.72715859531445
 p    1 1.00
             0.2700058                   1

2 0
 s    6 1.00
             3047.5249  0.0018347001629433
             457.36951    0.01403730124668
             103.94869   0.068842606114048
             29.210155    0.23218442062076
              9.286663    0.46794134155879
              3.163927    0.36231203217765
 s    3 1.00
             7.8682724   -0.11933240861517
             1.8812885   -0.16085421161283
             0.5442493     1.1434564825515
 s    1 1.00
             0.1687144                   1
 p    3 1.00
             7.8682724   0.068999095584993
             1.8812885    0.31642397975315
             0.5442493    0.74430825237435
 p    1 1.00
             0.1687144                   1

3 0
 s    6 1.00
             3047.5249  0.0018347001629433
             457.36951    0.01403730124668
             103.94869   0.068842606114048
             29.210155    0.23218442062076
              9.286663    0.46794134155879
              3.163927    0.36231203217765
 s    3 1.00
             7.8682724   -0.11933240861517
             1.8812885   -0.16085421161283
             0.5442493     1.1434564825515
 s    1 1.00
             0.1687144                   1
 p    3 1.00
             7.8682724   0.068999095584993
             1.8812885    0.31642397975315
             0.5442493    0.74430825237435
 p    1 1.00
             0.1687144                   1

4 0
 s    3 1.00
             18.731137    0.03349459952309
             2.8253937    0.23472694665786
             0.6401217    0.81375731841339
 s    1 1.00
             0.1612778                   1

5 0
 s    3 1.00
             18.731137    0.03349459952309
             2.8253937    0.23472694665786
             0.6401217    0.81375731841339
 s    1 1.00
             0.1612778                   1

6 0
 s    3 1.00
             18.731137    0.03349459952309
             2.8253937    0.23472694665786
             0.6401217    0.81375731841339
 s    1 1.00
             0.1612778                   1

7 0
 s    3 1.00
             18.731137    0.03349459952309
             2.8253937    0.23472694665786
             0.6401217    0.81375731841339
 s    1 1.00
             0.1612778                   1

8 0
 s    3 1.00
             18.731137    0.03349459952309
             2.8253937    0.23472694665786
             0.6401217    0.81375731841339
 s    1 1.00
             0.1612778                   1

9 0
 s    3 1.00
             18.731137    0.03349459952309
             2.8253937    0.23472694665786
             0.6401217    0.81375731841339
 s    1 1.00
             0.1612778                   1

[5d]
[7f]
[9g]

[MO]
 Sym= A
 Ene=    -19.19234111
 Spin= Alpha
 Occup=    2.00000
   1      0.99516972985665
   2      0.02844634569211
   3    -0.016449810498028
   4    0.0016384236066878
   5    -0.00026573601599167
   6    0.0014524762133287
   7    -0.0036788194068414
   8    0.0015281444204813
   9    -0.001797025602171
  10    -7.5967867431835e-05
  11     -0.00108354019732
  12    0.0082448512275058
  13    -0.00039727360319009
  14    0.00028410882195281
  15    7.9233448865159e-05
  16    -0.0025966760963067
  17     0.002309409429539
  18    0.00023867447508416
  19    -1.537546888743e-05
  20    -0.0004597215299375
  21    -0.0005387441391269
  22    0.00042157054860628
  23    -2.5383893987781e-05
  24    2.2458064600877e-06
  25    7.4264035788093e-06
  26    0.00064777633766654
  27    -2.5531194955992e-05
  28    -0.00055056254452929
  29    -0.00068889166979706
  30    -0.00045423886370222
  31    -0.00060001509862956
  32    -3.6760579204594e-05
  33    0.00078617535934225
  34    -8.2483393611846e-05
  35    -0.0003177512429758
  36    5.4811327842174e-05
  37    -0.0007069093164726
  38    0.00046494780201744
  39    0.0023699496873124
 Sym= A
 Ene=    -10.25749297
 Spin= Alpha
 Occup=    2.00000
   1    1.8379086608596e-05
   2    -0.00034728308591719
   3    0.0031221651817083
   4    -0.00028511126054035
   5    0.00031052779125658
   6    0.00010707525054464
   7    0.00075825787046592
   8    -0.00078181250286705
   9    -0.00060461324518822
  10       0.9954402597098
  11     0.035867147502251
  12    -0.031433035357052
  13    -0.000299461493984
  14    0.00025661695009579
  15    0.00011031386737634
  16    -0.0023120681092072
  17    -0.0012394888367385
  18    4.8882975097167e-05
  19    0.0017126651386803
  20    -0.0013313017925554
  21    0.0089510158198974
  22    0.00047196183939336
  23    0.00029495396174225
  24    -1.8186809673742e-06
  25    -0.0042951964287489
  26    -0.0025848339579429
  27    2.1371313518327e-05
  28    -0.00042755696394007
  29    0.0056126502600649
  30    -0.00036712222124198
  31    0.0056138800935202
  32    -0.00028934101246255
  33    0.00033405119217708
  34    -0.0003746413134207
  35    0.00036690413937386
  36    -0.00032048318240015
  37    0.00016858471028521
  38    0.00026477201327195
  39    0.0010422262742713
 Sym= A
 Ene=    -10.20448159
 Spin= Alpha
 Occup=    2.00000
   1    -2.0298045787246e-05
   2    -0.000473318883253
   3    0.0006958318596248
   4    -0.00014165904211858
   5    -1.1074069429723e-05
   6    -2.0379811135554e-05
   7    0.00040701561850336
   8    0.00012064162713033
   9    0.0002242563682625
  10    -0.0017702478959354
  11    -0.0011976794029024
  12    0.0073197841109575
  13    -0.00034918219657459
  14    -0.0003878321871341
  15    -4.4573676048912e-06
  16    0.0034455257563344
  17    0.0022603573771823
  18    -9.3499888000329e-05
  19      0.99537989671559
  20     0.036307424401339
  21     -0.03186690651591
  22    6.9739057923816e-05
  23    0.00011648021496021
  24    7.1831245141014e-05
  25    0.0014352921123523
  26    0.00055849071151198
  27    -1.1503571368534e-05
  28    -0.00022490457143321
  29    0.00033911945812441
  30    -0.00025299413796617
  31    0.00028355736708179
  32    -0.00048751644564438
  33    0.0053791819832615
  34    -0.00042200161436008
  35    0.0056039950362027
  36    -0.0004570443798115
  37    0.0056446350216705
  38    -0.0003120436074277
  39    -6.5551380546169e-05
 Sym= A
 Ene=    -1.035765446
 Spin= Alpha
 Occup=    2.00000
   1     -0.20036550349533
   2      0.43489063326495
   3      0.45719626172372
   4     0.096570382149164
   5    -0.0091832030594957
   6     0.091810075931595
   7     0.060146946187077
   8    -0.014508672173349
   9     0.044875332536173
  10    -0.078824459720037
  11      0.15145016308553
  12     0.052485078836313
  13    -0.077555572953253
  14      0.06959919678709
  15    0.0074995684505062
  16     0.019861629434262
  17    -0.0075112610301823
  18    0.0098404251964427
  19    -0.018760750732226
  20     0.037236986064587
  21     0.011454176139059
  22    -0.023801865144617
  23    -0.0051069944868144
  24    0.0010436604658288
  25    -0.0013330943230664
  26    0.0040576089682126
  27    -0.0025105916632006
  28     0.025250165678027
  29    -0.0026152537934965
  30     0.024001023657593
  31    0.0064411463186472
  32    0.0055111916498052
  33    -0.0029240107255632
  34    0.0073969162415932
  35    0.00033380295373886
  36    0.0076771737101548
  37    0.0066008656104588
  38      0.13421864987273
  39    -0.0039151146658428
 Sym= A
 Ene=   -0.7571527578
 Spin= Alpha
 Occup=    2.00000
   1      0.06003359904979
   2     -0.13344229805548
   3     -0.17842305800193
   4     0.050358546387787
   5    -0.061827817763007
   6    -0.062336647842682
   7     0.011060287518292
   8    -0.018895143671983
   9    -0.027993656646956
  10     -0.12189180260621
  11      0.23663128617884
  12      0.22292736583061
  13      0.10039284397619
  14     0.012253604431677
  15    -0.0058039873384546
  16     0.019606393132424
  17    0.0024182934975881
  18    0.0072648431060154
  19     -0.16009333155781
  20      0.30118530975031
  21      0.27794450726111
  22    -0.038013522324803
  23    -0.033401369979029
  24    0.0019251774819861
  25    0.0010745633135362
  26    -0.0032661294457383
  27    -0.00083413442980311
  28     0.071052712203044
  29     0.005564102469824
  30     0.074792347548713
  31     0.013545202677633
  32     0.095258198905242
  33     0.015797239669083
  34     0.090038769164417
  35     0.010940376775403
  36     0.092662423077685
  37     0.015456750229374
  38    -0.080548374450648
  39    -0.016702217286222
 Sym= A
 Ene=   -0.6296664374
 Spin= Alpha
 Occup=    2.00000
   1     0.027769688046515
   2    -0.062229253345802
   3    -0.093779852090322
   4     0.085303769191087
   5     -0.18720536984531
   6     -0.10817781605487
   7     0.030645055665294
   8    -0.080744218438711
   9     -0.04625216102027
  10     -0.12755831421969
  11      0.25621439248667
  12       0.3023442757788
  13    -0.099709891560365
  14     -0.09483143082392
  15     -0.02298365138504
  16    -0.0060556480806226
  17    -0.025526827727067
  18    -0.0047617310725486
  19       0.1129569760795
  20      -0.2101731699304
  21     -0.27730919638365
  22     -0.08585151847034
  23    -0.074891231082837
  24    -0.010045509506714
  25    -0.0046964910147028
  26    -0.018590219738135
  27    -0.0052049314762316
  28      0.11350802821999
  29      0.03578550144576
  30      0.12779306051756
  31     0.040304446557341
  32    -0.094969433436502
  33    -0.036738093283352
  34    -0.098603752350736
  35    -0.030610925070543
  36     -0.10872827157046
  37    -0.040201197517958
  38     -0.13013803967284
  39    -0.052083403792022
 Sym= A
 Ene=    -0.501285317
 Spin= Alpha
 Occup=    2.00000
   1     0.035304456121581
   2     -0.08042585779377
   3     -0.13319718086399
   4     -0.11654193920516
   5      0.18483038547924
   6      0.28235369537494
   7    -0.060439183189315
   8     0.087276171358273
   9      0.14529042368668
  10    -0.032824753364832
  11     0.053190264302385
  12      0.10463687895927
  13      0.15453961666203
  14     -0.17237740917194
  15       0.2315523973506
  16     0.057373936596286
  17    -0.042059094208155
  18      0.12305469370805
  19      0.01785490378182
  20    -0.032554295125043
  21     -0.07280859143885
  22     -0.01891203627244
  23     -0.11266545972539
  24      0.11551857008819
  25     0.002965903856464
  26    -0.046078918403179
  27     0.039871284982957
  28      0.17885585905827
  29      0.10088314763953
  30    -0.015466039681539
  31    0.0028878940461855
  32    0.0099753419121448
  33     0.008259667335502
  34     -0.10045081732699
  35    -0.061422138078782
  36    0.0032791946353068
  37     0.015679538148752
  38       0.1846074971576
  39      0.10161884696814
 Sym= A
 Ene=   -0.4552959431
 Spin= Alpha
 Occup=    2.00000
   1     0.023803921037872
   2     -0.05401676743928
   3    -0.085002251655804
   4      0.20503298080097
   5     -0.17360593608423
   6    -0.0016486720873738
   7       0.1182983496374
   8    -0.094666403766756
   9     0.001151219655312
  10    -0.00071779309560091
  11    0.0035626777065919
  12    -0.0012812423663433
  13     -0.12677065317313
  14      0.19798854785458
  15      0.24969188573204
  16    -0.037451439927619
  17     0.093931929644415
  18      0.14199908413928
  19    0.00025543546592763
  20    0.0025620792939546
  21    -0.014394443801383
  22    -0.099616350312773
  23      0.15067216165063
  24      0.20083857782918
  25    -0.039445489213907
  26      0.07139670188178
  27     0.085447904587907
  28      0.04944896062278
  29     0.022628205091033
  30     -0.17858970427322
  31      -0.1006782494791
  32     -0.10141975800859
  33    -0.071939637222826
  34    -0.041825291448171
  35    -0.032992647643099
  36      0.14613439486747
  37      0.10666652182734
  38    -0.084254898748547
  39    -0.053618827923894
 Sym= A
 Ene=   -0.4288006905
 Spin= Alpha
 Occup=    2.00000
   1    -0.035169979264973
   2      0.08123218662193
   3      0.13130470942575
   4     -0.14020497493936
   5     -0.22851411087437
   6    -0.052449761355768
   7    -0.093802389163769
   8     -0.13697776449602
   9    -0.024997571432819
  10     0.031191238827242
  11    -0.063212244934375
  12    -0.078779098770129
  13     -0.21881836589202
  14     -0.19567886947554
  15     0.093265346559431
  16     -0.10611919313494
  17    -0.091723597285512
  18     0.026029447248541
  19    -0.011049567490693
  20     0.019940612821385
  21     0.055259329026418
  22      0.33592110183841
  23     0.014176018918403
  24     0.098528690328001
  25      0.16103036383245
  26    -0.020148625256888
  27     0.052927498640208
  28      0.08475539079589
  29     0.078676606376637
  30    -0.010332517840894
  31     -0.00921197700915
  32      0.17452674111373
  33      0.11609707104794
  34    -0.027171885999106
  35    -0.011412383543659
  36     0.072991588803273
  37     0.048615149766278
  38    -0.087191181506581
  39    -0.052618380935885
 Sym= A
 Ene=   -0.3806689381
 Spin= Alpha
 Occup=    2.00000
   1     0.022075314284147
   2    -0.048263726763248
   3     -0.10879613368761
   4    -0.096359994716676
   5    -0.00033784272741043
   6      0.13507893409217
   7    -0.063642423864017
   8    0.0020464526100034
   9     0.082542000287726
  10    -0.0038356407529617
  11    0.0019729900833805
  12     0.030850230715254
  13     -0.11798079249561
  14     -0.21239617473698
  15    -0.00071932830773833
  16    -0.066648763125764
  17    -0.088609052964612
  18     0.013393925075567
  19    0.0059074306698134
  20    -0.012230681443725
  21    -0.012190878832722
  22     -0.02640259278087
  23      0.37303112362298
  24     -0.14349879367905
  25    -0.0094225737976291
  26      0.18401267073686
  27    -0.088765843521016
  28     0.093438668421821
  29     0.076602349175661
  30     0.092197666196132
  31     0.077903209758601
  32      -0.1719034151774
  33     -0.14538587116919
  34      0.22203402931211
  35      0.17081479156779
  36     0.065463186216761
  37     0.067520039401342
  38     0.066272166369928
  39      0.05799849932432
 Sym= A
 Ene=   -0.3649313301
 Spin= Alpha
 Occup=    2.00000
   1    -0.022391903161399
   2     0.052841066246737
   3     0.068537920342651
   4     -0.15289665849479
   5      0.13262853108433
   6     -0.16252309743551
   7     -0.10125112537301
   8     0.091841737192842
   9     -0.11123878387445
  10    0.00058080858611684
  11    -0.0029610615088353
  12     0.002591147816021
  13     0.075414483834946
  14     -0.10881006802759
  15     -0.18650262311408
  16     0.010162954059013
  17    -0.059077571768613
  18     -0.12880568076537
  19    0.0028990735302419
  20    -0.010821167691537
  21    0.0039581534021033
  22    -0.076813975713208
  23     0.098816553064191
  24      0.32812124366858
  25    -0.059714537239449
  26     0.045766289120386
  27      0.18985720606757
  28    -0.059889771687921
  29    -0.043997908962392
  30      0.14698386711216
  31      0.10689666626295
  32    -0.095546357914538
  33    -0.075426619987622
  34     -0.14581259438762
  35      -0.1087495285053
  36      0.23094972385394
  37      0.19958240090071
  38    -0.0059185475941284
  39     0.023234149363639
 Sym= A
 Ene=   -0.3086090091
 Spin= Alpha
 Occup=    1.99995
   1     0.059332669501823
   2     -0.13404869388315
   3     -0.23438582323015
   4      0.32055895387171
   5    -0.025056836864388
   6      0.31763642673667
   7      0.24300882789714
   8    -0.036178903216468
   9      0.21994109956173
  10    -0.0078565561578001
  11     0.021233662722805
  12    -0.0019996107817377
  13     -0.18135390988258
  14     0.011584042079587
  15     -0.22288671477832
  16    -0.023076078206565
  17    0.0056239919166347
  18    -0.039210920167593
  19     0.015952264035519
  20    -0.027002972968486
  21    -0.091906319285813
  22      0.15989242518268
  23     0.011231395937484
  24     0.088590218729152
  25     0.089638149637368
  26     0.029561939183424
  27     0.006060085354956
  28     -0.13781248321698
  29     -0.16563487385045
  30      0.16339963783103
  31      0.18641074911719
  32     0.082302551667298
  33     0.093435615108026
  34    -0.073898907525725
  35    -0.099993563006192
  36     0.058682573256273
  37     0.099929067820036
  38      0.13795863950126
  39     0.099100288117691
 Sym= A
 Ene=   -0.2569461323
 Spin= Alpha
 Occup=    1.99940
   1    -0.00070920432605615
   2    -0.0022426688952641
   3      0.02947068183211
   4      0.33003666468928
   5      0.39875101554218
   6     -0.28098330917398
   7      0.26715915778456
   8      0.30784431678214
   9     -0.22223965812107
  10    0.0023122835902132
  11    -0.0085894218987889
  12    -0.0015213797423704
  13     -0.10228564103001
  14     -0.11721600707872
  15      0.09444570544819
  16     0.023018780404724
  17    -0.047868366154638
  18    0.0066761090918326
  19     0.030053725683247
  20    -0.062216389473125
  21     -0.17916262916694
  22      0.18452833229907
  23      0.06807831396003
  24    -0.020435296239631
  25     0.061457045588632
  26       0.1058692300546
  27     0.020192825915172
  28      0.14718575396072
  29      0.17882328311797
  30    -0.0097152200436895
  31    -0.018241504232795
  32     0.061050198959637
  33      0.13221192878497
  34     0.021949750137233
  35     0.068268333311984
  36    -0.016343277546818
  37    -0.016787615903789
  38    -0.0012144938209735
  39    -0.0034358195477759
 Sym= A
 Ene=   0.06858476271
 Spin= Alpha
 Occup=    0.00057
   1     0.068280866472084
   2     -0.12300440114793
   3     -0.81994404190579
   4     -0.07763006674034
   5      -0.1164421212932
   6     -0.21046147116659
   7     -0.11882489871332
   8     -0.20424835874498
   9     -0.34389805097885
  10     0.028841291210188
  11    -0.023777723217501
  12     -0.61049717111362
  13     -0.10189933476872
  14      0.13665870967616
  15     -0.05603826099337
  16     -0.22961864088226
  17      0.36655046401668
  18     -0.10564059865007
  19     0.048745855206876
  20    -0.055128993375358
  21     -0.73413027160979
  22    -0.068495779286616
  23    -0.076472283660509
  24     -0.07581047442634
  25      -0.2442882328733
  26     -0.31222178182075
  27     -0.16717969003474
  28     0.019476464374428
  29      0.57220644412373
  30    -0.017772530628048
  31      0.21916493807603
  32     0.056380430224092
  33      0.41562021209191
  34    -0.012858182703772
  35      0.23641119930142
  36    -0.010178454546936
  37       0.6071001525818
  38      0.10938848736781
  39       1.0979181427828
 Sym= A
 Ene=    0.1199979328
 Spin= Alpha
 Occup=    0.00004
   1     0.052058759285457
   2    -0.080935896430686
   3     -0.68273899361764
   4    -0.057181489288613
   5     0.044537080262191
   6     -0.12687894002404
   7     -0.13966590593186
   8     0.098385544760419
   9     -0.17063949713287
  10    -0.072960929806033
  11      0.12666880028104
  12       1.0277722745882
  13       -0.140342010113
  14    -0.062353455173233
  15    -0.067495635546559
  16     -0.46192668033214
  17     -0.29520710135971
  18     -0.21839368031101
  19    -0.099067351940476
  20      0.11787173844216
  21       1.7196789816774
  22      0.10653642419028
  23     0.040296859590385
  24    -0.054122890858367
  25       0.2567755525947
  26       0.2524628645863
  27     -0.10782291132648
  28     0.014175699837599
  29     -0.43196249887027
  30      -0.0369089590799
  31     -0.94702088077568
  32     0.029748544274199
  33     -0.70285172038366
  34    -0.055907091293903
  35     -0.98833023836989
  36    -0.033950519857733
  37     -0.68218504737546
  38     0.092766352969026
  39      0.61926216284312
 Sym= A
 Ene=    0.1407536448
 Spin= Alpha
 Occup=    0.00002
   1    -0.022604358712714
   2     0.051830478043319
   3      0.21963373914717
   4     0.088736305411078
   5    -0.086767792547598
   6    -0.013626214181065
   7      0.16580207754347
   8     -0.14301959757925
   9    -0.013140845921535
  10     -0.06020646711743
  11     0.055489397655484
  12       1.2018360545802
  13       0.1336040444588
  14     -0.19722942212082
  15     -0.11405934404288
  16      0.52219985056917
  17     -0.43803252668975
  18     -0.29401687496188
  19     0.068808863220122
  20    -0.057662382995328
  21      -1.2490130865005
  22      0.08473061139746
  23      -0.1514672992902
  24     -0.15442925429873
  25      0.38405028529063
  26     -0.30348275041288
  27     -0.43566032119351
  28    -0.0077797219930131
  29     -0.40340868533267
  30    -0.089974110153682
  31      -1.2154576623388
  32    -0.066539971140228
  33     -0.35446192484423
  34     0.010341810778389
  35       0.2684556569399
  36     0.085895730016635
  37       1.3490357623681
  38    0.0085458413751423
  39      0.15920458318752
 Sym= A
 Ene=    0.1532256703
 Spin= Alpha
 Occup=    0.00001
   1    -0.027655099636772
   2     0.048115464457108
   3      0.37209985804978
   4     0.062412342931755
   5    0.00029609627668542
   6     0.090194743430322
   7       0.1106000058403
   8    -0.044486756059036
   9      0.20962967349008
  10     0.078958453149256
  11    -0.085339676890785
  12      -1.3466636468363
  13     0.037861248886733
  14     0.085929052471926
  15     -0.25724568408842
  16     0.015649098226955
  17      0.18892034537655
  18     -0.69985248852628
  19    -0.049682757192754
  20     0.041224221208621
  21      0.86976132579196
  22     0.004235470289899
  23     0.041876161950685
  24     -0.20749435687981
  25    -0.062584512242065
  26    -0.027796238415796
  27     -0.55343884193263
  28     0.093918579383518
  29       1.6271887968462
  30    -0.035853234851406
  31     -0.17277116469759
  32    -0.025804521892908
  33      -0.2967240371725
  34     -0.07384047729151
  35      -1.1097057614067
  36     0.072107842775316
  37      0.44352979520427
  38    -0.034304759494938
  39     -0.34737929774364
 Sym= A
 Ene=    0.1649275262
 Spin= Alpha
 Occup=    0.00000
   1    0.0022782901656358
   2    -0.025888489055614
   3      0.12896116584777
   4    -0.099536775054231
   5     0.031205110865305
   6     0.047870058658366
   7    -0.065181937539036
   8     0.066992622554002
   9     0.096465154709406
  10    -0.048889760702156
  11     0.074162196480081
  12      0.78137504076616
  13    -0.029554827089246
  14    -0.027192886842004
  15    -0.060891673011964
  16      0.11752566002158
  17      -0.4553667229321
  18     -0.18735744637672
  19     0.047520681326863
  20    -0.049637564279651
  21     -0.80815273181511
  22     -0.25008832411715
  23      0.23908473043213
  24     -0.07820729094468
  25     -0.80964848131324
  26       1.0031972750944
  27     -0.22996124215651
  28    0.0069976779493004
  29     -0.28000837576141
  30    -0.037333443692768
  31     -0.75453699909798
  32      0.10399948849828
  33        1.935208095035
  34    -0.061339175104618
  35     -0.70742242014217
  36    -0.0031998238067517
  37     -0.05763288536783
  38    -0.033648676147119
  39     -0.19005628047395
 Sym= A
 Ene=    0.1883023212
 Spin= Alpha
 Occup=    0.00000
   1    0.0065447577844629
   2     -0.02051045436203
   3    -0.018349464725544
   4     0.020175083011116
   5     -0.04219972203617
   6     0.069745158322835
   7     0.027846969616344
   8    -0.043765721008458
   9      0.15874614189158
  10    -0.0017368633295457
  11     0.011562049264635
  12     0.015892178898688
  13    -0.0038039815930951
  14    -0.022103306502043
  15     -0.32781794324157
  16    0.0070309677140134
  17     -0.11676910975083
  18      -1.2795730845799
  19    0.0077145331491728
  20    -0.010525099081552
  21     -0.11974377351725
  22    -0.026892763201297
  23    -0.016256301762317
  24      0.26976131494822
  25     -0.07553143648425
  26    -0.045606945876328
  27       1.2876340039155
  28     0.011233988107691
  29       1.0888765493927
  30    -0.034388037580474
  31      -1.2859136941161
  32    -0.0012520199722676
  33       0.1056931587489
  34     0.068206625962592
  35       1.2573998004424
  36    -0.054415056423294
  37      -1.0925530867569
  38     0.040533618324163
  39      0.10452591762413
 Sym= A
 Ene=    0.2172530335
 Spin= Alpha
 Occup=    0.00000
   1     0.045511482035997
   2    -0.048579868822297
   3     -0.78976062810414
   4     -0.24456751109517
   5      0.26637164429981
   6      0.11711760073173
   7     -0.65024783902157
   8      0.55548343490888
   9      0.24600818989942
  10     -0.10801326691555
  11      0.11951468575661
  12       1.7953704212182
  13     -0.12926416410667
  14      0.27098866287368
  15    -0.050579855797182
  16     -0.47501155319302
  17       1.4057271115846
  18     -0.17548079685108
  19     0.061588253332191
  20    -0.018772612426155
  21      -1.2646435611697
  22     0.060807675139926
  23    -0.049010168942688
  24     -0.02849602103061
  25      0.99193830016075
  26      -0.1989301470845
  27    -0.084939830040559
  28     0.064067374584924
  29      0.29912106778618
  30     0.046235023169362
  31     -0.12458614009836
  32     0.013045208706534
  33     -0.30389773095919
  34    -0.043332474374268
  35      0.31599275886015
  36    0.0034426570791692
  37      0.58960846856167
  38    -0.037181231973485
  39      -0.7425634901342
 Sym= A
 Ene=    0.2384563703
 Spin= Alpha
 Occup=    0.00000
   1    -0.0062195880231611
   2     0.021393128031364
   3     0.015352504079119
   4    0.0022630560024287
   5     -0.15836242043703
   6    -0.077540410403034
   7    -0.030096011886835
   8     -0.35939737438609
   9     -0.12885850467392
  10     -0.04563413620255
  11     0.019380296220896
  12       1.1430725725678
  13      0.35050713969906
  14      0.20130106351135
  15    -0.011248118215608
  16       1.5322377040762
  17      0.86444517545866
  18     0.019827874514541
  19     0.052256318189943
  20    -0.013644184623768
  21      -1.1651958120509
  22      0.18729487576395
  23      0.25948033377568
  24     0.024680546742696
  25       1.3416256733419
  26        1.175507708579
  27     0.095542472703345
  28     0.023180660958204
  29       0.3472808448718
  30     0.046246012024269
  31      0.37530521561765
  32    -0.069119947102813
  33    -0.013345485122291
  34    -0.038444234547325
  35     -0.40180887430273
  36    -0.067944659240389
  37     -0.63106556605626
  38     0.032066139614997
  39       0.4638305726533
 Sym= A
 Ene=    0.5478671323
 Spin= Alpha
 Occup=    0.00000
   1    0.0057854319953933
   2    -0.030262545705428
   3      0.17420022229157
   4     -0.16264466220046
   5     0.041669983014606
   6    0.0021832668474182
   7    -0.092236269928876
   8     -0.13429946982653
   9    -0.0023270203370024
  10    -0.031427596123743
  11      0.14585941027641
  12     -0.46707132252622
  13     -0.64091979449722
  14     -0.15543004654407
  15    -0.045244752586208
  16        0.922941564267
  17      0.66408601543237
  18     0.066545139909056
  19    0.0033812102773997
  20     -0.05305381268791
  21     -0.62884509764983
  22       0.3877954940316
  23      0.55291951230338
  24    -0.084127451470166
  25     -0.35960642494572
  26     -0.88345281913842
  27      0.15786927270751
  28     0.041597205975544
  29      0.13327234672342
  30      0.13020856232414
  31      0.13249798687657
  32    -0.013721586318944
  33    -0.095828383640155
  34      0.21888292316679
  35      0.18818501227523
  36      0.10965413442013
  37      0.12829325388252
  38    -0.033440815900102
  39     0.019437197118281
 Sym= A
 Ene=    0.5701077065
 Spin= Alpha
 Occup=    0.00000
   1     -0.00772076056596
   2     0.031920666419347
   3     0.072404408244552
   4    -0.015629158769593
   5     0.067959086779267
   6     -0.06046044038852
   7     0.042883299482996
   8     0.019153471065913
   9    -0.014660176030457
  10    0.0020102141230324
  11    0.0058966030473547
  12     0.039544981832941
  13     0.017176069316208
  14      0.10140996361315
  15      -0.2085601580117
  16    -0.085462815307793
  17     -0.23149137840738
  18       0.3255010042867
  19    -0.0022762003029044
  20    0.0023595402561001
  21      0.14793661100964
  22    -0.095270979915002
  23    -0.088571263862287
  24     -0.68818318119509
  25      0.08085995020184
  26       0.1224220791852
  27       1.3422510499745
  28     -0.30108814189176
  29    -0.090954685537971
  30       0.2487625156974
  31     0.021767383575691
  32    -0.014769148607095
  33    -0.0031164608737348
  34      0.38803183780029
  35      0.20018192022547
  36     -0.43135520230633
  37     -0.24319903672442
  38    -0.033919178526098
  39    -0.094370505917541
 Sym= A
 Ene=     0.578416725
 Spin= Alpha
 Occup=    0.00000
   1    -0.011786185568969
   2      0.17175507840424
   3     -0.86126169057608
   4      0.24256926366074
   5    -0.081579563190431